# vtk DataFile Version 4.2
Generated by LIGGGHTS
ASCII
DATASET POLYDATA
POINTS 100 float
-0.0570485 0.00411506 0.0528925 -0.0401984 0.00756423 0.0565381 -0.0768981 0.0129587 0.0547229 
-0.0642989 0.0141664 0.0534185 -0.0711705 0.00561613 0.0577988 -0.0500058 0.00542324 0.0599935 
-0.0857341 0.00672778 0.0571952 -0.0783561 0.00823416 0.0587245 -0.0515584 0.0111885 0.058791 
-0.0317962 0.011944 0.0591058 -0.0160293 0.0112114 0.0592491 -0.0203844 0.014065 0.0583252 
-0.0859981 0.0142487 0.0640812 -0.0428101 0.00454426 0.068386 -0.0217131 0.00406467 0.0665299 
-0.039119 0.00725918 0.0648565 -0.0280939 0.00606412 0.0649555 -0.07041 0.0151629 0.0677523 
-0.0110505 0.00841684 0.0695192 -0.0790303 0.0131706 0.0689204 -0.0736479 0.0109704 0.0702426 
-0.0677395 0.0161624 0.0725374 -0.0637752 0.0144834 0.0695724 -0.0207667 0.0159268 0.0710239 
-0.0848871 0.00598224 0.0755585 -0.0408095 0.00312519 0.0756912 -0.0787221 0.00996126 0.0749138 
-0.0410208 0.00837655 0.0734119 -0.034143 0.00869133 0.0744242 -0.0254469 0.00916441 0.0763296 
-0.0871887 0.0120435 0.0735781 -0.070007 0.0104906 0.074465 -0.014726 0.0124731 0.0729419 
-0.0241321 0.014943 0.0757244 -0.0773928 0.00515116 0.0790977 -0.0304389 0.0067674 0.0772142 
-0.0359745 0.0112186 0.0792065 -0.0139886 0.0168833 0.078881 -0.0606776 0.0119587 0.0832629 
-0.0556897 0.0112919 0.0848882 -0.0467739 0.0143296 0.0828502 -0.0506908 0.0151252 0.087384 
-0.0575944 0.00880161 0.0907559 -0.0207058 0.00307816 0.0958647 -0.0332112 0.00682369 0.0934131 
-0.0797831 0.0110056 0.0957742 -0.0526103 0.0110628 0.0939373 -0.0168993 0.0110216 0.0933027 
-0.0301952 0.0168189 0.0963562 -0.0626176 0.00579259 0.0981213 -0.0295927 0.004415 0.0989224 
-0.0573622 0.00728112 0.100775 -0.0726864 0.0112759 0.0996215 -0.0658695 0.0145988 0.0972688 
-0.0205685 0.0141269 0.100864 -0.0343509 0.00511498 0.103723 -0.0173747 0.00713942 0.104668 
-0.0144176 0.0117857 0.103962 -0.0821232 0.0156704 0.102587 -0.037197 0.0157869 0.101711 
-0.0728677 0.00985999 0.106035 -0.0616783 0.00841846 0.108305 -0.0291179 0.0105544 0.106858 
-0.0738081 0.0159284 0.10835 -0.0193422 0.00610712 0.112308 -0.0456798 0.0124696 0.112118 
-0.046466 0.00923782 0.115989 -0.0801449 0.0108471 0.11709 -0.0535379 0.0127368 0.115093 
-0.0149684 0.014817 0.116494 -0.0725824 0.00911794 0.120001 -0.0335327 0.00622019 0.120856 
-0.056465 0.0129915 0.124465 -0.0137386 0.013792 0.123856 -0.0384676 0.0163568 0.122529 
-0.0357627 0.00594992 0.126365 -0.0602737 0.00784613 0.12849 -0.0820421 0.0164667 0.125979 
-0.0868208 0.0163375 0.129692 -0.0400246 0.0145334 0.132074 -0.0742966 0.00702801 0.134288 
-0.0590508 0.00910321 0.134433 -0.0141299 0.0136386 0.134952 -0.0584867 0.0160945 0.136055 
-0.0463662 0.00316486 0.13937 -0.0241427 0.00373614 0.141287 -0.056394 0.00600789 0.137684 
-0.045089 0.00956874 0.139849 -0.0503243 0.015055 0.140933 -0.0660709 0.0099979 0.145322 
-0.0650694 0.0158324 0.144544 -0.0175744 0.00865207 0.145482 -0.0776744 0.0114458 0.147817 
-0.0370008 0.00344018 0.149483 -0.0674278 0.00885761 0.150835 -0.056055 0.00862934 0.150782 
-0.0467582 0.00995132 0.150255 -0.0625106 0.0101753 0.151667 -0.0510389 0.0131818 0.151921 
-0.0139935 0.0152125 0.150536 
VERTICES 100 200
1 0 
1 1 
1 2 
1 3 
1 4 
1 5 
1 6 
1 7 
1 8 
1 9 
1 10 
1 11 
1 12 
1 13 
1 14 
1 15 
1 16 
1 17 
1 18 
1 19 
1 20 
1 21 
1 22 
1 23 
1 24 
1 25 
1 26 
1 27 
1 28 
1 29 
1 30 
1 31 
1 32 
1 33 
1 34 
1 35 
1 36 
1 37 
1 38 
1 39 
1 40 
1 41 
1 42 
1 43 
1 44 
1 45 
1 46 
1 47 
1 48 
1 49 
1 50 
1 51 
1 52 
1 53 
1 54 
1 55 
1 56 
1 57 
1 58 
1 59 
1 60 
1 61 
1 62 
1 63 
1 64 
1 65 
1 66 
1 67 
1 68 
1 69 
1 70 
1 71 
1 72 
1 73 
1 74 
1 75 
1 76 
1 77 
1 78 
1 79 
1 80 
1 81 
1 82 
1 83 
1 84 
1 85 
1 86 
1 87 
1 88 
1 89 
1 90 
1 91 
1 92 
1 93 
1 94 
1 95 
1 96 
1 97 
1 98 
1 99 

POINT_DATA 100
FIELD FieldData 5
id 1 100 int
60 67 97 65 86 50 94 11 69 
8 96 15 64 98 71 37 87 59 
27 80 44 74 34 83 31 3 29 
85 46 75 58 57 56 68 41 13 
63 18 38 81 4 47 2 53 19 
91 48 89 78 36 25 33 62 23 
7 5 61 99 54 77 17 72 22 
45 16 76 30 43 6 10 90 95 
79 52 12 93 26 55 100 9 92 
20 40 42 39 14 24 73 70 49 
35 66 88 21 51 84 28 32 82 
1 
type 1 100 int
1 1 1 1 1 1 1 1 1 
1 1 1 1 1 1 1 1 1 
1 1 1 1 1 1 1 1 1 
1 1 1 1 1 1 1 1 1 
1 1 1 1 1 1 1 1 1 
1 1 1 1 1 1 1 1 1 
1 1 1 1 1 1 1 1 1 
1 1 1 1 1 1 1 1 1 
1 1 1 1 1 1 1 1 1 
1 1 1 1 1 1 1 1 1 
1 1 1 1 1 1 1 1 1 
1 
i 3 100 int
0 0 0 0 0 0 0 0 0 
0 0 0 0 0 0 0 0 0 
0 0 0 0 0 0 0 0 0 
0 0 0 0 0 0 0 0 0 
0 0 0 0 0 0 0 0 0 
0 0 0 0 0 0 0 0 0 
0 0 0 0 0 0 0 0 0 
0 0 0 0 0 0 0 0 0 
0 0 0 0 0 0 0 0 0 
0 0 0 0 0 0 0 0 0 
0 0 0 0 0 0 0 0 0 
0 0 0 0 0 0 0 0 0 
0 0 0 0 0 0 0 0 0 
0 0 0 0 0 0 0 0 0 
0 0 0 0 0 0 0 0 0 
0 0 0 0 0 0 0 0 0 
0 0 0 0 0 0 0 0 0 
0 0 0 0 0 0 0 0 0 
0 0 0 0 0 0 0 0 0 
0 0 0 0 0 0 0 0 0 
0 0 0 0 0 0 0 0 0 
0 0 0 0 0 0 0 0 0 
0 0 0 0 0 0 0 0 0 
0 0 0 0 0 0 0 0 0 
0 0 0 0 0 0 0 0 0 
0 0 0 0 0 0 0 0 0 
0 0 0 0 0 0 0 0 0 
0 0 0 0 0 0 0 0 0 
0 0 0 0 0 0 0 0 0 
0 0 0 0 0 0 0 0 0 
0 0 0 0 0 0 0 0 0 
0 0 0 0 0 0 0 0 0 
0 0 0 0 0 0 0 0 0 
0 0 0 
v 3 100 double
0 0 -1 0 0 -1 0 0 -1 
0 0 -1 0 0 -1 0 0 -1 
0 0 -1 0 0 -1 0 0 -1 
0 0 -1 0 0 -1 0 0 -1 
0 0 -1 0 0 -1 0 0 -1 
0 0 -1 0 0 -1 0 0 -1 
0 0 -1 0 0 -1 0 0 -1 
0 0 -1 0 0 -1 0 0 -1 
0 0 -1 0 0 -1 0 0 -1 
0 0 -1 0 0 -1 0 0 -1 
0 0 -1 0 0 -1 0 0 -1 
0 0 -1 0 0 -1 0 0 -1 
0 0 -1 0 0 -1 0 0 -1 
0 0 -1 0 0 -1 0 0 -1 
0 0 -1 0 0 -1 0 0 -1 
0 0 -1 0 0 -1 0 0 -1 
0 0 -1 0 0 -1 0 0 -1 
0 0 -1 0 0 -1 0 0 -1 
0 0 -1 0 0 -1 0 0 -1 
0 0 -1 0 0 -1 0 0 -1 
0 0 -1 0 0 -1 0 0 -1 
0 0 -1 0 0 -1 0 0 -1 
0 0 -1 0 0 -1 0 0 -1 
0 0 -1 0 0 -1 0 0 -1 
0 0 -1 0 0 -1 0 0 -1 
0 0 -1 0 0 -1 0 0 -1 
0 0 -1 0 0 -1 0 0 -1 
0 0 -1 0 0 -1 0 0 -1 
0 0 -1 0 0 -1 0 0 -1 
0 0 -1 0 0 -1 0 0 -1 
0 0 -1 0 0 -1 0 0 -1 
0 0 -1 0 0 -1 0 0 -1 
0 0 -1 0 0 -1 0 0 -1 
0 0 -1 
radius 1 100 double
0.0025 0.0025 0.0025 0.0025 0.0025 0.0025 0.0025 0.0025 0.0025 
0.0025 0.0025 0.0025 0.0025 0.0025 0.0025 0.0025 0.0025 0.0025 
0.0025 0.0025 0.0025 0.0025 0.0025 0.0025 0.0025 0.0025 0.0025 
0.0025 0.0025 0.0025 0.0025 0.0025 0.0025 0.0025 0.0025 0.0025 
0.0025 0.0025 0.0025 0.0025 0.0025 0.0025 0.0025 0.0025 0.0025 
0.0025 0.0025 0.0025 0.0025 0.0025 0.0025 0.0025 0.0025 0.0025 
0.0025 0.0025 0.0025 0.0025 0.0025 0.0025 0.0025 0.0025 0.0025 
0.0025 0.0025 0.0025 0.0025 0.0025 0.0025 0.0025 0.0025 0.0025 
0.0025 0.0025 0.0025 0.0025 0.0025 0.0025 0.0025 0.0025 0.0025 
0.0025 0.0025 0.0025 0.0025 0.0025 0.0025 0.0025 0.0025 0.0025 
0.0025 0.0025 0.0025 0.0025 0.0025 0.0025 0.0025 0.0025 0.0025 
0.0025 
