LIGGGHTS (Version LIGGGHTS-PUBLIC 3.8.0, compiled 2020-11-14-18:15:39 by dominik, git commit b63096725a72ff55a110afe1bbd033cdbe3cb806)
# Vibrofluidised bed simulation LIGGGHTS script

# Simulation constants
variable timestep       equal 1e-6

variable N              equal 100			# number of particles

variable corPP          equal 0.5
variable corPW          equal 0.5
variable corPW2         equal 1             # side walls (front)

# Friction not included
# variable fricPP         equal 0.1		    # particle particle friction
# variable fricRollPP     equal 0.7		    # rolling friction
# variable fricRolldampPP equal 0.5		    # rolling friction damping

# Material properties
variable youngmodP      equal 0.8e9
variable poissP         equal 0.46


# Particles' radius and density
variable r1             equal 0.005/2
variable densPart       equal 970.0


# Setting up system
atom_style 	    granular
atom_modify	    map array

boundary	    f f f
newton 		    off
communicate     single vel yes
units 		    si

# Define simulation domain
region domain block -0.11 0.01 -0.01 0.022 -0.02 0.21 units box
create_box 3 domain
Created orthogonal box = (-0.11 -0.01 -0.02) to (0.01 0.022 0.21)
  1 by 1 by 1 MPI processor grid

# Read restart file if needed. The Python interface (`coexist.LiggghtsSimulation`)
# handles this transparently
# read_restart restart.sim

# Create neighbor list
neighbor	    0.003 bin
neigh_modify	delay 0


# Particle / Wall properties
fix  m1 all property/global youngsModulus peratomtype ${youngmodP}  ${youngmodP}    ${youngmodP}
fix  m1 all property/global youngsModulus peratomtype 800000000  ${youngmodP}    ${youngmodP}
fix  m1 all property/global youngsModulus peratomtype 800000000  800000000    ${youngmodP}
fix  m1 all property/global youngsModulus peratomtype 800000000  800000000    800000000
fix  m2 all property/global poissonsRatio peratomtype ${poissP}     ${poissP}       ${poissP}
fix  m2 all property/global poissonsRatio peratomtype 0.46     ${poissP}       ${poissP}
fix  m2 all property/global poissonsRatio peratomtype 0.46     0.46       ${poissP}
fix  m2 all property/global poissonsRatio peratomtype 0.46     0.46       0.46
fix  m3 all property/global coefficientRestitution peratomtypepair 3     ${corPP}    ${corPW}    ${corPW2}       ${corPW}    ${corPW2}   ${corPW}        ${corPW2}   ${corPW}    ${corPW}
fix  m3 all property/global coefficientRestitution peratomtypepair 3     0.5    ${corPW}    ${corPW2}       ${corPW}    ${corPW2}   ${corPW}        ${corPW2}   ${corPW}    ${corPW}
fix  m3 all property/global coefficientRestitution peratomtypepair 3     0.5    0.5    ${corPW2}       ${corPW}    ${corPW2}   ${corPW}        ${corPW2}   ${corPW}    ${corPW}
fix  m3 all property/global coefficientRestitution peratomtypepair 3     0.5    0.5    1       ${corPW}    ${corPW2}   ${corPW}        ${corPW2}   ${corPW}    ${corPW}
fix  m3 all property/global coefficientRestitution peratomtypepair 3     0.5    0.5    1       0.5    ${corPW2}   ${corPW}        ${corPW2}   ${corPW}    ${corPW}
fix  m3 all property/global coefficientRestitution peratomtypepair 3     0.5    0.5    1       0.5    1   ${corPW}        ${corPW2}   ${corPW}    ${corPW}
fix  m3 all property/global coefficientRestitution peratomtypepair 3     0.5    0.5    1       0.5    1   0.5        ${corPW2}   ${corPW}    ${corPW}
fix  m3 all property/global coefficientRestitution peratomtypepair 3     0.5    0.5    1       0.5    1   0.5        1   ${corPW}    ${corPW}
fix  m3 all property/global coefficientRestitution peratomtypepair 3     0.5    0.5    1       0.5    1   0.5        1   0.5    ${corPW}
fix  m3 all property/global coefficientRestitution peratomtypepair 3     0.5    0.5    1       0.5    1   0.5        1   0.5    0.5


fix  m5 all property/global k_finnie peratomtypepair 3 1.0 1.0 1.0 1.0 1.0 1.0 1.0 1.0 1.0


# Contact models - Hertzian without cohesion
pair_style  gran model hertz tangential off
WARNING: 
	The contact model you specified is not located in any whitelist.
	Because of this the model will be run in an unoptimized version (increasing runtime by up to 20%).
	In order to optimize this model you have the following options:
		(i)  Run the genAutoExamplesWhitelist.sh script in your LIGGGHTS(R) source folder to automatically parse the input script
		(ii) Add the model combination by hand to your style_contact_model_user.whitelist that can be found in your LIGGGHTS(R) source folder
	If you perform one of the steps above LIGGGHTS(R) needs to be recompiled to generate the optimized code.

 (/home/dominik/Documents/LIGGGHTS-PUBLIC/src/contact_models.h:364)
pair_coeff  * *


# Timestep size
timestep    ${timestep}
timestep    1e-06


# Set gravity as a constant force
fix gravi all gravity 9.81 vector 0.0 0.0 -1.0


# Create bed geometry from STL files
fix cad all mesh/surface/stress file            mesh/vib_bed_full_xz.stl type 2 wear finnie
fix front_back all mesh/surface/stress file     mesh/walls_xy.stl type 2  wear finnie
fix inface all mesh/surface file                mesh/inface_mm.stl type 2 scale 0.001

# Wall contact models
fix granwalls all wall/gran model hertz tangential off  mesh n_meshes 2 meshes cad front_back
WARNING: 
	The contact model you specified is not located in any whitelist.
	Because of this the model will be run in an unoptimized version (increasing runtime by up to 20%).
	In order to optimize this model you have the following options:
		(i)  Run the genAutoExamplesWhitelist.sh script in your LIGGGHTS(R) source folder to automatically parse the input script
		(ii) Add the model combination by hand to your style_contact_model_user.whitelist that can be found in your LIGGGHTS(R) source folder
	If you perform one of the steps above LIGGGHTS(R) needs to be recompiled to generate the optimized code.

 (/home/dominik/Documents/LIGGGHTS-PUBLIC/src/contact_models.h:364)


# Particle insertion region
fix pts1 all particletemplate/sphere 15485863 atom_type 1 density constant ${densPart} radius constant ${r1}
fix pts1 all particletemplate/sphere 15485863 atom_type 1 density constant 970 radius constant ${r1}
fix pts1 all particletemplate/sphere 15485863 atom_type 1 density constant 970 radius constant 0.0025
fix pdd1 all particledistribution/discrete/numberbased  32452843 1  pts1 1

fix ins all insert/stream seed 123457 distributiontemplate pdd1 nparticles ${N} vel gaussian     0. 0. -1. 0.1 0.1 0.3 particlerate 10000 overlapcheck yes insertion_face inface extrude_length 0.1
fix ins all insert/stream seed 123457 distributiontemplate pdd1 nparticles 100 vel gaussian     0. 0. -1. 0.1 0.1 0.3 particlerate 10000 overlapcheck yes insertion_face inface extrude_length 0.1


# Integration scheme
fix integr all nve/sphere

# Output settings, include total thermal energy
thermo        1000

thermo_style  custom step atoms ke vol time
thermo_modify lost ignore norm no

# Run the first 1000 timesteps to makes sure all particles are inserted
run 1000
Setting up run at Mon Jan 25 13:25:25 2021

WARNING: Fix mesh: Mesh contains highly skewed element, moving mesh (if used) will not parallelize well (/home/dominik/Documents/LIGGGHTS-PUBLIC/src/surface_mesh_I.h:657)
WARNING: Fix mesh: Mesh contains highly skewed element, moving mesh (if used) will not parallelize well (/home/dominik/Documents/LIGGGHTS-PUBLIC/src/surface_mesh_I.h:657)
INFO: Particle insertion ins: 1000.000000 particles every 100000 steps - particle rate 10000.000000, (mass rate 6.348635e-01)
      100 particles (mass 6.348635e-03) within 0 steps
Memory usage per processor = 5.51067 Mbytes
    Step    Atoms         KinEng         Volume           Time 
       0        0              0      0.0008832              0 
INFO: Particle insertion ins: inserted 100 particle templates (mass 6.348635e-03) at step 1
 - a total of 100 particle templates (mass 6.348635e-03) inserted so far.
    1000      100   0.0031743176      0.0008832          0.001 
Loop time of 0.0134001 on 1 procs for 1000 steps with 100 atoms, finish time Mon Jan 25 13:25:25 2021


Pair  time (%) = 0.00118936 (8.87576)
Neigh time (%) = 5.782e-05 (0.431491)
Comm  time (%) = 3.3535e-05 (0.25026)
Outpt time (%) = 6.102e-06 (0.0455371)
Other time (%) = 0.0121132 (90.397)

Nlocal:    100 ave 100 max 100 min
Histogram: 1 0 0 0 0 0 0 0 0 0
Nghost:    0 ave 0 max 0 min
Histogram: 1 0 0 0 0 0 0 0 0 0
Neighs:    65 ave 65 max 65 min
Histogram: 1 0 0 0 0 0 0 0 0 0

Total # of neighbors = 65
Ave neighs/atom = 0.65
Neighbor list builds = 1
Dangerous builds = 0
reset_timestep 0

modify_timing on


# Save restart files if needed. The library saves all the simulation state (including restart)
# automatically with the `coexist.LiggghtsSimulation.save` method
# restart 10000 restart/vib restart/vib

# Start vibrating the bed
fix move all move/mesh mesh cad viblin axis 0. 0. 1 order 1 amplitude 0.004 phase 0 period 0.02
WARNING: Movement type wiggle requires only (10 + 2*$order) arguments, excess arguments will be ignored (/home/dominik/Documents/LIGGGHTS-PUBLIC/src/mesh_mover_linear.cpp:303)
fix move2 all move/mesh mesh front_back viblin axis 0. 0. 1 order 1 amplitude 0.004 phase 0 period 0.02
WARNING: Movement type wiggle requires only (10 + 2*$order) arguments, excess arguments will be ignored (/home/dominik/Documents/LIGGGHTS-PUBLIC/src/mesh_mover_linear.cpp:303)
unfix ins
unfix inface

# Save particle locations as VTK files straight from LIGGGHTS. The `coexist` library can also
# export data in the newer, more efficient XML-based VTU file format - without needing to link
# against a VTK library
# dump   dmp all custom/vtk 1000 post/vib_*.vtk id type type x y z ix iy iz vx vy vz radius
fix  m3 all property/global coefficientRestitution peratomtypepair 3             0.5 0.5 1.0             0.5 1.0 0.5             1.0 0.5 0.5 
variable corPP equal 0.5
fix  m3 all property/global coefficientRestitution peratomtypepair 3             0.5 0.5 1.0             0.5 1.0 0.5             1.0 0.5 0.5 
variable corPW equal 0.5
run 536.0 post no
Setting up run at Mon Jan 25 13:25:25 2021

Memory usage per processor = 8.60505 Mbytes
    Step    Atoms         KinEng         Volume           Time 
       0      100   0.0031743176      0.0008832              0 
     536      100   0.0032077875      0.0008832       0.000536 
Loop time of 0.00565204 on 1 procs for 536 steps with 100 atoms, finish time Mon Jan 25 13:25:25 2021

timestep 9.149459602979959e-06
run 1 post no
Setting up run at Mon Jan 25 13:25:25 2021

Memory usage per processor = 8.60505 Mbytes
    Step    Atoms         KinEng         Volume           Time 
     536      100   0.0032077875      0.0008832       0.000536 
     537      100   0.0032083603      0.0008832  0.00054514946 
Loop time of 1.6642e-05 on 1 procs for 1 steps with 100 atoms, finish time Mon Jan 25 13:25:25 2021

timestep 1.5530193794273047e-05
run 1038.0 post no
Setting up run at Mon Jan 25 13:25:25 2021

Memory usage per processor = 8.60505 Mbytes
    Step    Atoms         KinEng         Volume           Time 
     537      100   0.0032083603      0.0008832  0.00054514946 
    1000      100   0.0036743736      0.0008832   0.0077356292 
    1575      100   0.0042970909      0.0008832    0.016665491 
Loop time of 0.0185778 on 1 procs for 1038 steps with 100 atoms, finish time Mon Jan 25 13:25:25 2021

timestep 1.1760486082646e-06
run 1 post no
Setting up run at Mon Jan 25 13:25:25 2021

Memory usage per processor = 8.60505 Mbytes
    Step    Atoms         KinEng         Volume           Time 
    1575      100   0.0042970909      0.0008832    0.016665491 
    1576      100   0.0042971761      0.0008832    0.016666667 
Loop time of 1.9908e-05 on 1 procs for 1 steps with 100 atoms, finish time Mon Jan 25 13:25:25 2021

timestep 1.5530193794273047e-05
run 536.0 post no
Setting up run at Mon Jan 25 13:25:25 2021

Memory usage per processor = 8.60505 Mbytes
    Step    Atoms         KinEng         Volume           Time 
    1576      100   0.0042971761      0.0008832    0.016666667 
    2000      100   0.0047875757      0.0008832    0.023251469 
    2112      100   0.0049215383      0.0008832    0.024990851 
Loop time of 0.0100064 on 1 procs for 536 steps with 100 atoms, finish time Mon Jan 25 13:25:25 2021

timestep 9.149459602981693e-06
run 1 post no
Setting up run at Mon Jan 25 13:25:25 2021

Memory usage per processor = 8.60505 Mbytes
    Step    Atoms         KinEng         Volume           Time 
    2112      100   0.0049215383      0.0008832    0.024990851 
    2113      100   0.0049222478      0.0008832          0.025 
Loop time of 1.8065e-05 on 1 procs for 1 steps with 100 atoms, finish time Mon Jan 25 13:25:25 2021

timestep 1.5530193794273047e-05
run 536.0 post no
Setting up run at Mon Jan 25 13:25:25 2021

Memory usage per processor = 8.60505 Mbytes
    Step    Atoms         KinEng         Volume           Time 
    2113      100   0.0049222478      0.0008832          0.025 
    2649      100   0.0055889917      0.0008832    0.033324184 
Loop time of 0.0107745 on 1 procs for 536 steps with 100 atoms, finish time Mon Jan 25 13:25:25 2021

timestep 9.149459602978224e-06
run 1 post no
Setting up run at Mon Jan 25 13:25:25 2021

Memory usage per processor = 8.60505 Mbytes
    Step    Atoms         KinEng         Volume           Time 
    2649      100   0.0055889917      0.0008832    0.033324184 
    2650      100   0.0055897479      0.0008832    0.033333333 
Loop time of 2.4366e-05 on 1 procs for 1 steps with 100 atoms, finish time Mon Jan 25 13:25:25 2021

timestep 1.5530193794273047e-05
run 536.0 post no
Setting up run at Mon Jan 25 13:25:25 2021

Memory usage per processor = 8.60505 Mbytes
    Step    Atoms         KinEng         Volume           Time 
    2650      100   0.0055897479      0.0008832    0.033333333 
    3000      100   0.0060479999      0.0008832    0.038768901 
    3186      100   0.0062363595      0.0008832    0.041657517 
Loop time of 0.0107465 on 1 procs for 536 steps with 100 atoms, finish time Mon Jan 25 13:25:25 2021

timestep 9.149459602978224e-06
run 1 post no
Setting up run at Mon Jan 25 13:25:25 2021

Memory usage per processor = 8.60505 Mbytes
    Step    Atoms         KinEng         Volume           Time 
    3186      100   0.0062363595      0.0008832    0.041657517 
    3187      100   0.0062371549      0.0008832    0.041666667 
Loop time of 1.9677e-05 on 1 procs for 1 steps with 100 atoms, finish time Mon Jan 25 13:25:25 2021

timestep 1.5530193794273047e-05
run 536.0 post no
Setting up run at Mon Jan 25 13:25:25 2021

Memory usage per processor = 8.60505 Mbytes
    Step    Atoms         KinEng         Volume           Time 
    3187      100   0.0062371549      0.0008832    0.041666667 
    3723      100   0.0067193014      0.0008832    0.049990851 
Loop time of 0.0110461 on 1 procs for 536 steps with 100 atoms, finish time Mon Jan 25 13:25:25 2021

timestep 9.149459602985163e-06
run 1 post no
Setting up run at Mon Jan 25 13:25:25 2021

Memory usage per processor = 8.60506 Mbytes
    Step    Atoms         KinEng         Volume           Time 
    3723      100   0.0067193014      0.0008832    0.049990851 
    3724      100   0.0067201092      0.0008832           0.05 
Loop time of 1.9066e-05 on 1 procs for 1 steps with 100 atoms, finish time Mon Jan 25 13:25:25 2021

timestep 1.5530193794273047e-05
run 536.0 post no
Setting up run at Mon Jan 25 13:25:25 2021

Memory usage per processor = 8.60506 Mbytes
    Step    Atoms         KinEng         Volume           Time 
    3724      100   0.0067201092      0.0008832           0.05 
    4000      100   0.0074223977      0.0008832    0.054286333 
    4260      100   0.0076886079      0.0008832    0.058324184 
Loop time of 0.0147586 on 1 procs for 536 steps with 100 atoms, finish time Mon Jan 25 13:25:25 2021

timestep 9.149459602978224e-06
run 1 post no
Setting up run at Mon Jan 25 13:25:25 2021

Memory usage per processor = 8.60506 Mbytes
    Step    Atoms         KinEng         Volume           Time 
    4260      100   0.0076886079      0.0008832    0.058324184 
    4261      100   0.0076889344      0.0008832    0.058333333 
Loop time of 2.2833e-05 on 1 procs for 1 steps with 100 atoms, finish time Mon Jan 25 13:25:25 2021

timestep 1.5530193794273047e-05
run 536.0 post no
Setting up run at Mon Jan 25 13:25:25 2021

Memory usage per processor = 8.60506 Mbytes
    Step    Atoms         KinEng         Volume           Time 
    4261      100   0.0076889344      0.0008832    0.058333333 
    4797      100   0.0058458102      0.0008832    0.066657517 
Loop time of 0.0158581 on 1 procs for 536 steps with 100 atoms, finish time Mon Jan 25 13:25:25 2021

timestep 9.149459602978224e-06
run 1 post no
Setting up run at Mon Jan 25 13:25:25 2021

Memory usage per processor = 8.60506 Mbytes
    Step    Atoms         KinEng         Volume           Time 
    4797      100   0.0058458102      0.0008832    0.066657517 
    4798      100   0.0058461604      0.0008832    0.066666667 
Loop time of 1.8565e-05 on 1 procs for 1 steps with 100 atoms, finish time Mon Jan 25 13:25:25 2021

timestep 1.5530193794273047e-05
run 536.0 post no
Setting up run at Mon Jan 25 13:25:25 2021

Memory usage per processor = 8.60506 Mbytes
    Step    Atoms         KinEng         Volume           Time 
    4798      100   0.0058461604      0.0008832    0.066666667 
    5000      100    0.005447493      0.0008832    0.069803766 
    5334      100   0.0060007094      0.0008832    0.074990851 
Loop time of 0.0148557 on 1 procs for 536 steps with 100 atoms, finish time Mon Jan 25 13:25:25 2021

timestep 9.149459602978224e-06
run 1 post no
Setting up run at Mon Jan 25 13:25:25 2021

Memory usage per processor = 8.60506 Mbytes
    Step    Atoms         KinEng         Volume           Time 
    5334      100   0.0060007094      0.0008832    0.074990851 
    5335      100   0.0061311148      0.0008832          0.075 
Loop time of 2.2653e-05 on 1 procs for 1 steps with 100 atoms, finish time Mon Jan 25 13:25:25 2021

timestep 1.5530193794273047e-05
run 536.0 post no
Setting up run at Mon Jan 25 13:25:25 2021

Memory usage per processor = 8.60506 Mbytes
    Step    Atoms         KinEng         Volume           Time 
    5335      100   0.0061311148      0.0008832          0.075 
    5871      100   0.0043550753      0.0008832    0.083324184 
Loop time of 0.0166025 on 1 procs for 536 steps with 100 atoms, finish time Mon Jan 25 13:25:25 2021

timestep 9.149459602978224e-06
run 1 post no
Setting up run at Mon Jan 25 13:25:25 2021

Memory usage per processor = 8.60506 Mbytes
    Step    Atoms         KinEng         Volume           Time 
    5871      100   0.0043550753      0.0008832    0.083324184 
    5872      100   0.0043551222      0.0008832    0.083333333 
Loop time of 2.1701e-05 on 1 procs for 1 steps with 100 atoms, finish time Mon Jan 25 13:25:25 2021

timestep 1.5530193794273047e-05
run 536.0 post no
Setting up run at Mon Jan 25 13:25:25 2021

Memory usage per processor = 8.60506 Mbytes
    Step    Atoms         KinEng         Volume           Time 
    5872      100   0.0043551222      0.0008832    0.083333333 
    6000      100   0.0037905056      0.0008832    0.085321198 
    6408      100   0.0026541186      0.0008832    0.091657517 
Loop time of 0.0146304 on 1 procs for 536 steps with 100 atoms, finish time Mon Jan 25 13:25:25 2021

timestep 9.149459602978224e-06
run 1 post no
Setting up run at Mon Jan 25 13:25:25 2021

Memory usage per processor = 8.60506 Mbytes
    Step    Atoms         KinEng         Volume           Time 
    6408      100   0.0026541186      0.0008832    0.091657517 
    6409      100   0.0026521076      0.0008832    0.091666667 
Loop time of 2.5048e-05 on 1 procs for 1 steps with 100 atoms, finish time Mon Jan 25 13:25:25 2021

timestep 1.5530193794273047e-05
run 536.0 post no
Setting up run at Mon Jan 25 13:25:25 2021

Memory usage per processor = 8.60506 Mbytes
    Step    Atoms         KinEng         Volume           Time 
    6409      100   0.0026521076      0.0008832    0.091666667 
    6945      100   0.0031014253      0.0008832    0.099990851 
Loop time of 0.0161406 on 1 procs for 536 steps with 100 atoms, finish time Mon Jan 25 13:25:25 2021

timestep 9.149459602992102e-06
run 1 post no
Setting up run at Mon Jan 25 13:25:25 2021

Memory usage per processor = 8.60506 Mbytes
    Step    Atoms         KinEng         Volume           Time 
    6945      100   0.0031014253      0.0008832    0.099990851 
    6946      100     0.00310124      0.0008832            0.1 
Loop time of 2.3845e-05 on 1 procs for 1 steps with 100 atoms, finish time Mon Jan 25 13:25:25 2021

timestep 1.5530193794273047e-05
run 536.0 post no
Setting up run at Mon Jan 25 13:25:25 2021

Memory usage per processor = 8.60506 Mbytes
    Step    Atoms         KinEng         Volume           Time 
    6946      100     0.00310124      0.0008832            0.1 
    7000      100   0.0027679512      0.0008832     0.10083863 
    7482      100   0.0021411403      0.0008832     0.10832418 
Loop time of 0.0144055 on 1 procs for 536 steps with 100 atoms, finish time Mon Jan 25 13:25:25 2021

timestep 9.149459602978224e-06
run 1 post no
Setting up run at Mon Jan 25 13:25:25 2021

Memory usage per processor = 8.60506 Mbytes
    Step    Atoms         KinEng         Volume           Time 
    7482      100   0.0021411403      0.0008832     0.10832418 
    7483      100   0.0021410015      0.0008832     0.10833333 
Loop time of 2.1151e-05 on 1 procs for 1 steps with 100 atoms, finish time Mon Jan 25 13:25:25 2021

timestep 1.5530193794273047e-05
run 536.0 post no
Setting up run at Mon Jan 25 13:25:25 2021

Memory usage per processor = 8.60506 Mbytes
    Step    Atoms         KinEng         Volume           Time 
    7483      100   0.0021410015      0.0008832     0.10833333 
    8000      100    0.002318665      0.0008832     0.11636244 
    8019      100   0.0022988669      0.0008832     0.11665752 
Loop time of 0.0141496 on 1 procs for 536 steps with 100 atoms, finish time Mon Jan 25 13:25:25 2021

timestep 9.149459602978224e-06
run 1 post no
Setting up run at Mon Jan 25 13:25:25 2021

Memory usage per processor = 8.60506 Mbytes
    Step    Atoms         KinEng         Volume           Time 
    8019      100   0.0022988669      0.0008832     0.11665752 
    8020      100   0.0022986486      0.0008832     0.11666667 
Loop time of 2.2102e-05 on 1 procs for 1 steps with 100 atoms, finish time Mon Jan 25 13:25:25 2021

timestep 1.5530193794273047e-05
run 536.0 post no
Setting up run at Mon Jan 25 13:25:25 2021

Memory usage per processor = 8.60506 Mbytes
    Step    Atoms         KinEng         Volume           Time 
    8020      100   0.0022986486      0.0008832     0.11666667 
    8556      100    0.001856365      0.0008832     0.12499085 
Loop time of 0.0155505 on 1 procs for 536 steps with 100 atoms, finish time Mon Jan 25 13:25:25 2021

timestep 9.149459602978224e-06
run 1 post no
Setting up run at Mon Jan 25 13:25:25 2021

Memory usage per processor = 8.60506 Mbytes
    Step    Atoms         KinEng         Volume           Time 
    8556      100    0.001856365      0.0008832     0.12499085 
    8557      100    0.001856153      0.0008832          0.125 
Loop time of 2.3044e-05 on 1 procs for 1 steps with 100 atoms, finish time Mon Jan 25 13:25:25 2021

timestep 1.5530193794273047e-05
run 536.0 post no
Setting up run at Mon Jan 25 13:25:25 2021

Memory usage per processor = 8.60506 Mbytes
    Step    Atoms         KinEng         Volume           Time 
    8557      100    0.001856153      0.0008832          0.125 
    9000      100   0.0014831064      0.0008832     0.13187988 
    9093      100   0.0014539093      0.0008832     0.13332418 
Loop time of 0.0137111 on 1 procs for 536 steps with 100 atoms, finish time Mon Jan 25 13:25:25 2021

timestep 9.149459602978224e-06
run 1 post no
Setting up run at Mon Jan 25 13:25:25 2021

Memory usage per processor = 8.60506 Mbytes
    Step    Atoms         KinEng         Volume           Time 
    9093      100   0.0014539093      0.0008832     0.13332418 
    9094      100   0.0014537201      0.0008832     0.13333333 
Loop time of 2.2503e-05 on 1 procs for 1 steps with 100 atoms, finish time Mon Jan 25 13:25:25 2021

timestep 1.5530193794273047e-05
run 536.0 post no
Setting up run at Mon Jan 25 13:25:25 2021

Memory usage per processor = 8.60506 Mbytes
    Step    Atoms         KinEng         Volume           Time 
    9094      100   0.0014537201      0.0008832     0.13333333 
    9630      100   0.0015594506      0.0008832     0.14165752 
Loop time of 0.0148403 on 1 procs for 536 steps with 100 atoms, finish time Mon Jan 25 13:25:25 2021

timestep 9.149459602978224e-06
run 1 post no
Setting up run at Mon Jan 25 13:25:25 2021

Memory usage per processor = 8.60506 Mbytes
    Step    Atoms         KinEng         Volume           Time 
    9630      100   0.0015594506      0.0008832     0.14165752 
    9631      100   0.0015592327      0.0008832     0.14166667 
Loop time of 2.115e-05 on 1 procs for 1 steps with 100 atoms, finish time Mon Jan 25 13:25:25 2021

timestep 1.5530193794273047e-05
run 536.0 post no
Setting up run at Mon Jan 25 13:25:25 2021

Memory usage per processor = 8.60506 Mbytes
    Step    Atoms         KinEng         Volume           Time 
    9631      100   0.0015592327      0.0008832     0.14166667 
   10000      100   0.0012359086      0.0008832     0.14739731 
   10167      100   0.0011404602      0.0008832     0.14999085 
Loop time of 0.0132268 on 1 procs for 536 steps with 100 atoms, finish time Mon Jan 25 13:25:25 2021

timestep 9.149459602978224e-06
run 1 post no
Setting up run at Mon Jan 25 13:25:25 2021

Memory usage per processor = 8.60506 Mbytes
    Step    Atoms         KinEng         Volume           Time 
   10167      100   0.0011404602      0.0008832     0.14999085 
   10168      100   0.0011404536      0.0008832           0.15 
Loop time of 2.3284e-05 on 1 procs for 1 steps with 100 atoms, finish time Mon Jan 25 13:25:25 2021

timestep 1.5530193794273047e-05
run 536.0 post no
Setting up run at Mon Jan 25 13:25:25 2021

Memory usage per processor = 8.60506 Mbytes
    Step    Atoms         KinEng         Volume           Time 
   10168      100   0.0011404536      0.0008832           0.15 
   10704      100   0.0010149455      0.0008832     0.15832418 
Loop time of 0.0132337 on 1 procs for 536 steps with 100 atoms, finish time Mon Jan 25 13:25:25 2021

timestep 9.149459602978224e-06
run 1 post no
Setting up run at Mon Jan 25 13:25:25 2021

Memory usage per processor = 8.60506 Mbytes
    Step    Atoms         KinEng         Volume           Time 
   10704      100   0.0010149455      0.0008832     0.15832418 
   10705      100   0.0010122086      0.0008832     0.15833333 
Loop time of 2.1982e-05 on 1 procs for 1 steps with 100 atoms, finish time Mon Jan 25 13:25:25 2021

timestep 1.5530193794273047e-05
run 536.0 post no
Setting up run at Mon Jan 25 13:25:25 2021

Memory usage per processor = 8.60506 Mbytes
    Step    Atoms         KinEng         Volume           Time 
   10705      100   0.0010122086      0.0008832     0.15833333 
   11000      100  0.00085936706      0.0008832     0.16291474 
   11241      100  0.00088838785      0.0008832     0.16665752 
Loop time of 0.0138146 on 1 procs for 536 steps with 100 atoms, finish time Mon Jan 25 13:25:25 2021

timestep 9.149459602978224e-06
run 1 post no
Setting up run at Mon Jan 25 13:25:25 2021

Memory usage per processor = 8.60506 Mbytes
    Step    Atoms         KinEng         Volume           Time 
   11241      100  0.00088838785      0.0008832     0.16665752 
   11242      100  0.00088830346      0.0008832     0.16666667 
Loop time of 2.2383e-05 on 1 procs for 1 steps with 100 atoms, finish time Mon Jan 25 13:25:25 2021

timestep 1.5530193794273047e-05
run 536.0 post no
Setting up run at Mon Jan 25 13:25:25 2021

Memory usage per processor = 8.60506 Mbytes
    Step    Atoms         KinEng         Volume           Time 
   11242      100  0.00088830346      0.0008832     0.16666667 
   11778      100  0.00086354721      0.0008832     0.17499085 
Loop time of 0.0145087 on 1 procs for 536 steps with 100 atoms, finish time Mon Jan 25 13:25:26 2021

timestep 9.149459602978224e-06
run 1 post no
Setting up run at Mon Jan 25 13:25:26 2021

Memory usage per processor = 8.60506 Mbytes
    Step    Atoms         KinEng         Volume           Time 
   11778      100  0.00086354721      0.0008832     0.17499085 
   11779      100  0.00086349451      0.0008832          0.175 
Loop time of 2.1861e-05 on 1 procs for 1 steps with 100 atoms, finish time Mon Jan 25 13:25:26 2021

timestep 1.5530193794273047e-05
run 536.0 post no
Setting up run at Mon Jan 25 13:25:26 2021

Memory usage per processor = 8.60506 Mbytes
    Step    Atoms         KinEng         Volume           Time 
   11779      100  0.00086349451      0.0008832          0.175 
   12000      100  0.00073454328      0.0008832     0.17843217 
   12315      100   0.0006812116      0.0008832     0.18332418 
Loop time of 0.0146377 on 1 procs for 536 steps with 100 atoms, finish time Mon Jan 25 13:25:26 2021

timestep 9.149459602978224e-06
run 1 post no
Setting up run at Mon Jan 25 13:25:26 2021

Memory usage per processor = 8.60506 Mbytes
    Step    Atoms         KinEng         Volume           Time 
   12315      100   0.0006812116      0.0008832     0.18332418 
   12316      100  0.00068121602      0.0008832     0.18333333 
Loop time of 2.2163e-05 on 1 procs for 1 steps with 100 atoms, finish time Mon Jan 25 13:25:26 2021

timestep 1.5530193794273047e-05
run 536.0 post no
Setting up run at Mon Jan 25 13:25:26 2021

Memory usage per processor = 8.60506 Mbytes
    Step    Atoms         KinEng         Volume           Time 
   12316      100  0.00068121602      0.0008832     0.18333333 
   12852      100  0.00069826609      0.0008832     0.19165752 
Loop time of 0.0148329 on 1 procs for 536 steps with 100 atoms, finish time Mon Jan 25 13:25:26 2021

timestep 9.149459602978224e-06
run 1 post no
Setting up run at Mon Jan 25 13:25:26 2021

Memory usage per processor = 8.60506 Mbytes
    Step    Atoms         KinEng         Volume           Time 
   12852      100  0.00069826609      0.0008832     0.19165752 
   12853      100  0.00069831995      0.0008832     0.19166667 
Loop time of 2.106e-05 on 1 procs for 1 steps with 100 atoms, finish time Mon Jan 25 13:25:26 2021

timestep 1.5530193794273047e-05
run 536.0 post no
Setting up run at Mon Jan 25 13:25:26 2021

Memory usage per processor = 8.60506 Mbytes
    Step    Atoms         KinEng         Volume           Time 
   12853      100  0.00069831995      0.0008832     0.19166667 
   13000      100  0.00079678672      0.0008832     0.19394961 
   13389      100   0.0013731717      0.0008832     0.19999085 
Loop time of 0.0149954 on 1 procs for 536 steps with 100 atoms, finish time Mon Jan 25 13:25:26 2021

timestep 9.14945960300598e-06
run 1 post no
Setting up run at Mon Jan 25 13:25:26 2021

Memory usage per processor = 8.60506 Mbytes
    Step    Atoms         KinEng         Volume           Time 
   13389      100   0.0013731717      0.0008832     0.19999085 
   13390      100   0.0013731649      0.0008832            0.2 
Loop time of 2.1822e-05 on 1 procs for 1 steps with 100 atoms, finish time Mon Jan 25 13:25:26 2021

timestep 1.5530193794273047e-05
run 536.0 post no
Setting up run at Mon Jan 25 13:25:26 2021

Memory usage per processor = 8.60506 Mbytes
    Step    Atoms         KinEng         Volume           Time 
   13390      100   0.0013731649      0.0008832            0.2 
   13926      100   0.0011943109      0.0008832     0.20832418 
Loop time of 0.0146721 on 1 procs for 536 steps with 100 atoms, finish time Mon Jan 25 13:25:26 2021

timestep 9.149459602978224e-06
run 1 post no
Setting up run at Mon Jan 25 13:25:26 2021

Memory usage per processor = 8.60506 Mbytes
    Step    Atoms         KinEng         Volume           Time 
   13926      100   0.0011943109      0.0008832     0.20832418 
   13927      100   0.0011943506      0.0008832     0.20833333 
Loop time of 2.13e-05 on 1 procs for 1 steps with 100 atoms, finish time Mon Jan 25 13:25:26 2021

timestep 1.5530193794273047e-05
run 536.0 post no
Setting up run at Mon Jan 25 13:25:26 2021

Memory usage per processor = 8.60506 Mbytes
    Step    Atoms         KinEng         Volume           Time 
   13927      100   0.0011943506      0.0008832     0.20833333 
   14000      100   0.0011957025      0.0008832     0.20946704 
   14463      100   0.0017704112      0.0008832     0.21665752 
Loop time of 0.0156298 on 1 procs for 536 steps with 100 atoms, finish time Mon Jan 25 13:25:26 2021

timestep 9.149459602978224e-06
run 1 post no
Setting up run at Mon Jan 25 13:25:26 2021

Memory usage per processor = 8.60506 Mbytes
    Step    Atoms         KinEng         Volume           Time 
   14463      100   0.0017704112      0.0008832     0.21665752 
   14464      100     0.00177041      0.0008832     0.21666667 
Loop time of 2.2593e-05 on 1 procs for 1 steps with 100 atoms, finish time Mon Jan 25 13:25:26 2021

timestep 1.5530193794273047e-05
run 536.0 post no
Setting up run at Mon Jan 25 13:25:26 2021

Memory usage per processor = 8.60506 Mbytes
    Step    Atoms         KinEng         Volume           Time 
   14464      100     0.00177041      0.0008832     0.21666667 
   15000      100    0.001373749      0.0008832     0.22499085 
Loop time of 0.015265 on 1 procs for 536 steps with 100 atoms, finish time Mon Jan 25 13:25:26 2021

timestep 9.149459602978224e-06
run 1 post no
Setting up run at Mon Jan 25 13:25:26 2021

Memory usage per processor = 8.60506 Mbytes
    Step    Atoms         KinEng         Volume           Time 
   15000      100    0.001373749      0.0008832     0.22499085 
   15001      100   0.0013737445      0.0008832          0.225 
Loop time of 2.1541e-05 on 1 procs for 1 steps with 100 atoms, finish time Mon Jan 25 13:25:26 2021

timestep 1.5530193794273047e-05
run 536.0 post no
Setting up run at Mon Jan 25 13:25:26 2021

Memory usage per processor = 8.60506 Mbytes
    Step    Atoms         KinEng         Volume           Time 
   15001      100   0.0013737445      0.0008832          0.225 
   15537      100    0.001141372      0.0008832     0.23332418 
Loop time of 0.0143634 on 1 procs for 536 steps with 100 atoms, finish time Mon Jan 25 13:25:26 2021

timestep 9.149459602978224e-06
run 1 post no
Setting up run at Mon Jan 25 13:25:26 2021

Memory usage per processor = 8.60506 Mbytes
    Step    Atoms         KinEng         Volume           Time 
   15537      100    0.001141372      0.0008832     0.23332418 
   15538      100   0.0011418135      0.0008832     0.23333333 
Loop time of 2.2663e-05 on 1 procs for 1 steps with 100 atoms, finish time Mon Jan 25 13:25:26 2021

timestep 1.5530193794273047e-05
run 536.0 post no
Setting up run at Mon Jan 25 13:25:26 2021

Memory usage per processor = 8.60506 Mbytes
    Step    Atoms         KinEng         Volume           Time 
   15538      100   0.0011418135      0.0008832     0.23333333 
   16000      100   0.0014204922      0.0008832     0.24050828 
   16074      100   0.0013775328      0.0008832     0.24165752 
Loop time of 0.0155457 on 1 procs for 536 steps with 100 atoms, finish time Mon Jan 25 13:25:26 2021

timestep 9.149459602978224e-06
run 1 post no
Setting up run at Mon Jan 25 13:25:26 2021

Memory usage per processor = 8.60506 Mbytes
    Step    Atoms         KinEng         Volume           Time 
   16074      100   0.0013775328      0.0008832     0.24165752 
   16075      100    0.001375988      0.0008832     0.24166667 
Loop time of 2.2803e-05 on 1 procs for 1 steps with 100 atoms, finish time Mon Jan 25 13:25:26 2021

timestep 1.5530193794273047e-05
run 536.0 post no
Setting up run at Mon Jan 25 13:25:26 2021

Memory usage per processor = 8.60506 Mbytes
    Step    Atoms         KinEng         Volume           Time 
   16075      100    0.001375988      0.0008832     0.24166667 
   16611      100   0.0011441795      0.0008832     0.24999085 
Loop time of 0.0151718 on 1 procs for 536 steps with 100 atoms, finish time Mon Jan 25 13:25:26 2021

timestep 9.149459602978224e-06
run 1 post no
Setting up run at Mon Jan 25 13:25:26 2021

Memory usage per processor = 8.60506 Mbytes
    Step    Atoms         KinEng         Volume           Time 
   16611      100   0.0011441795      0.0008832     0.24999085 
   16612      100   0.0011442308      0.0008832           0.25 
Loop time of 2.2112e-05 on 1 procs for 1 steps with 100 atoms, finish time Mon Jan 25 13:25:26 2021

timestep 1.5530193794273047e-05
run 536.0 post no
Setting up run at Mon Jan 25 13:25:26 2021

Memory usage per processor = 8.60506 Mbytes
    Step    Atoms         KinEng         Volume           Time 
   16612      100   0.0011442308      0.0008832           0.25 
   17000      100   0.0016127602      0.0008832     0.25602572 
   17148      100   0.0015314715      0.0008832     0.25832418 
Loop time of 0.015166 on 1 procs for 536 steps with 100 atoms, finish time Mon Jan 25 13:25:26 2021

timestep 9.149459602950468e-06
run 1 post no
Setting up run at Mon Jan 25 13:25:26 2021

Memory usage per processor = 8.60506 Mbytes
    Step    Atoms         KinEng         Volume           Time 
   17148      100   0.0015314715      0.0008832     0.25832418 
   17149      100   0.0015315014      0.0008832     0.25833333 
Loop time of 2.2533e-05 on 1 procs for 1 steps with 100 atoms, finish time Mon Jan 25 13:25:26 2021

timestep 1.5530193794273047e-05
run 536.0 post no
Setting up run at Mon Jan 25 13:25:26 2021

Memory usage per processor = 8.60506 Mbytes
    Step    Atoms         KinEng         Volume           Time 
   17149      100   0.0015315014      0.0008832     0.25833333 
   17685      100   0.0012904952      0.0008832     0.26665752 
Loop time of 0.0152447 on 1 procs for 536 steps with 100 atoms, finish time Mon Jan 25 13:25:26 2021

timestep 9.14945960300598e-06
run 1 post no
Setting up run at Mon Jan 25 13:25:26 2021

Memory usage per processor = 8.60506 Mbytes
    Step    Atoms         KinEng         Volume           Time 
   17685      100   0.0012904952      0.0008832     0.26665752 
   17686      100   0.0012905671      0.0008832     0.26666667 
Loop time of 2.2062e-05 on 1 procs for 1 steps with 100 atoms, finish time Mon Jan 25 13:25:26 2021

timestep 1.5530193794273047e-05
run 536.0 post no
Setting up run at Mon Jan 25 13:25:26 2021

Memory usage per processor = 8.60506 Mbytes
    Step    Atoms         KinEng         Volume           Time 
   17686      100   0.0012905671      0.0008832     0.26666667 
   18000      100   0.0012220345      0.0008832     0.27154315 
   18222      100   0.0015057921      0.0008832     0.27499085 
Loop time of 0.0144126 on 1 procs for 536 steps with 100 atoms, finish time Mon Jan 25 13:25:26 2021

timestep 9.14945960300598e-06
run 1 post no
Setting up run at Mon Jan 25 13:25:26 2021

Memory usage per processor = 8.60506 Mbytes
    Step    Atoms         KinEng         Volume           Time 
   18222      100   0.0015057921      0.0008832     0.27499085 
   18223      100   0.0015058612      0.0008832          0.275 
Loop time of 2.3255e-05 on 1 procs for 1 steps with 100 atoms, finish time Mon Jan 25 13:25:26 2021

timestep 1.5530193794273047e-05
run 536.0 post no
Setting up run at Mon Jan 25 13:25:26 2021

Memory usage per processor = 8.60506 Mbytes
    Step    Atoms         KinEng         Volume           Time 
   18223      100   0.0015058612      0.0008832          0.275 
   18759      100   0.0014464115      0.0008832     0.28332418 
Loop time of 0.0160099 on 1 procs for 536 steps with 100 atoms, finish time Mon Jan 25 13:25:26 2021

timestep 9.149459602950468e-06
run 1 post no
Setting up run at Mon Jan 25 13:25:26 2021

Memory usage per processor = 8.60506 Mbytes
    Step    Atoms         KinEng         Volume           Time 
   18759      100   0.0014464115      0.0008832     0.28332418 
   18760      100   0.0014464732      0.0008832     0.28333333 
Loop time of 2.2653e-05 on 1 procs for 1 steps with 100 atoms, finish time Mon Jan 25 13:25:26 2021

timestep 1.5530193794273047e-05
run 536.0 post no
Setting up run at Mon Jan 25 13:25:26 2021

Memory usage per processor = 8.60506 Mbytes
    Step    Atoms         KinEng         Volume           Time 
   18760      100   0.0014464732      0.0008832     0.28333333 
   19000      100   0.0013294964      0.0008832     0.28706058 
   19296      100   0.0012783284      0.0008832     0.29165752 
Loop time of 0.0143149 on 1 procs for 536 steps with 100 atoms, finish time Mon Jan 25 13:25:26 2021

timestep 9.14945960300598e-06
run 1 post no
Setting up run at Mon Jan 25 13:25:26 2021

Memory usage per processor = 8.60506 Mbytes
    Step    Atoms         KinEng         Volume           Time 
   19296      100   0.0012783284      0.0008832     0.29165752 
   19297      100   0.0012784368      0.0008832     0.29166667 
Loop time of 2.2783e-05 on 1 procs for 1 steps with 100 atoms, finish time Mon Jan 25 13:25:26 2021

timestep 1.5530193794273047e-05
run 536.0 post no
Setting up run at Mon Jan 25 13:25:26 2021

Memory usage per processor = 8.60506 Mbytes
    Step    Atoms         KinEng         Volume           Time 
   19297      100   0.0012784368      0.0008832     0.29166667 
   19833      100   0.0018529964      0.0008832     0.29999085 
Loop time of 0.0152551 on 1 procs for 536 steps with 100 atoms, finish time Mon Jan 25 13:25:26 2021

timestep 9.149459602950468e-06
run 1 post no
Setting up run at Mon Jan 25 13:25:26 2021

Memory usage per processor = 8.60506 Mbytes
    Step    Atoms         KinEng         Volume           Time 
   19833      100   0.0018529964      0.0008832     0.29999085 
   19834      100   0.0018528884      0.0008832            0.3 
Loop time of 2.1771e-05 on 1 procs for 1 steps with 100 atoms, finish time Mon Jan 25 13:25:26 2021

timestep 1.5530193794273047e-05
run 536.0 post no
Setting up run at Mon Jan 25 13:25:26 2021

Memory usage per processor = 8.60506 Mbytes
    Step    Atoms         KinEng         Volume           Time 
   19834      100   0.0018528884      0.0008832            0.3 
   20000      100   0.0017203083      0.0008832     0.30257801 
   20370      100   0.0015552651      0.0008832     0.30832418 
Loop time of 0.0142549 on 1 procs for 536 steps with 100 atoms, finish time Mon Jan 25 13:25:26 2021

timestep 9.14945960300598e-06
run 1 post no
Setting up run at Mon Jan 25 13:25:26 2021

Memory usage per processor = 8.60506 Mbytes
    Step    Atoms         KinEng         Volume           Time 
   20370      100   0.0015552651      0.0008832     0.30832418 
   20371      100    0.001555305      0.0008832     0.30833333 
Loop time of 2.3365e-05 on 1 procs for 1 steps with 100 atoms, finish time Mon Jan 25 13:25:26 2021

timestep 1.5530193794273047e-05
run 536.0 post no
Setting up run at Mon Jan 25 13:25:26 2021

Memory usage per processor = 8.60506 Mbytes
    Step    Atoms         KinEng         Volume           Time 
   20371      100    0.001555305      0.0008832     0.30833333 
   20907      100   0.0022171482      0.0008832     0.31665752 
Loop time of 0.0143629 on 1 procs for 536 steps with 100 atoms, finish time Mon Jan 25 13:25:26 2021

timestep 9.149459602950468e-06
run 1 post no
Setting up run at Mon Jan 25 13:25:26 2021

Memory usage per processor = 8.60506 Mbytes
    Step    Atoms         KinEng         Volume           Time 
   20907      100   0.0022171482      0.0008832     0.31665752 
   20908      100   0.0022171301      0.0008832     0.31666667 
Loop time of 2.2543e-05 on 1 procs for 1 steps with 100 atoms, finish time Mon Jan 25 13:25:26 2021

timestep 1.5530193794273047e-05
run 536.0 post no
Setting up run at Mon Jan 25 13:25:26 2021

Memory usage per processor = 8.60506 Mbytes
    Step    Atoms         KinEng         Volume           Time 
   20908      100   0.0022171301      0.0008832     0.31666667 
   21000      100   0.0021712577      0.0008832     0.31809544 
   21444      100   0.0017532294      0.0008832     0.32499085 
Loop time of 0.0145359 on 1 procs for 536 steps with 100 atoms, finish time Mon Jan 25 13:25:26 2021

timestep 9.14945960300598e-06
run 1 post no
Setting up run at Mon Jan 25 13:25:26 2021

Memory usage per processor = 8.60506 Mbytes
    Step    Atoms         KinEng         Volume           Time 
   21444      100   0.0017532294      0.0008832     0.32499085 
   21445      100   0.0017532203      0.0008832          0.325 
Loop time of 2.11e-05 on 1 procs for 1 steps with 100 atoms, finish time Mon Jan 25 13:25:26 2021

timestep 1.5530193794273047e-05
run 536.0 post no
Setting up run at Mon Jan 25 13:25:26 2021

Memory usage per processor = 8.60506 Mbytes
    Step    Atoms         KinEng         Volume           Time 
   21445      100   0.0017532203      0.0008832          0.325 
   21981      100   0.0016305386      0.0008832     0.33332418 
Loop time of 0.0139303 on 1 procs for 536 steps with 100 atoms, finish time Mon Jan 25 13:25:26 2021

timestep 9.149459602950468e-06
run 1 post no
Setting up run at Mon Jan 25 13:25:26 2021

Memory usage per processor = 8.60506 Mbytes
    Step    Atoms         KinEng         Volume           Time 
   21981      100   0.0016305386      0.0008832     0.33332418 
   21982      100   0.0016305099      0.0008832     0.33333333 
Loop time of 2.2323e-05 on 1 procs for 1 steps with 100 atoms, finish time Mon Jan 25 13:25:26 2021

timestep 1.5530193794273047e-05
run 536.0 post no
Setting up run at Mon Jan 25 13:25:26 2021

Memory usage per processor = 8.60506 Mbytes
    Step    Atoms         KinEng         Volume           Time 
   21982      100   0.0016305099      0.0008832     0.33333333 
   22000      100   0.0017616623      0.0008832     0.33361288 
   22518      100   0.0022518216      0.0008832     0.34165752 
Loop time of 0.0155341 on 1 procs for 536 steps with 100 atoms, finish time Mon Jan 25 13:25:26 2021

timestep 9.14945960300598e-06
run 1 post no
Setting up run at Mon Jan 25 13:25:26 2021

Memory usage per processor = 8.60506 Mbytes
    Step    Atoms         KinEng         Volume           Time 
   22518      100   0.0022518216      0.0008832     0.34165752 
   22519      100   0.0022513605      0.0008832     0.34166667 
Loop time of 2.3384e-05 on 1 procs for 1 steps with 100 atoms, finish time Mon Jan 25 13:25:26 2021

timestep 1.5530193794273047e-05
run 536.0 post no
Setting up run at Mon Jan 25 13:25:26 2021

Memory usage per processor = 8.60506 Mbytes
    Step    Atoms         KinEng         Volume           Time 
   22519      100   0.0022513605      0.0008832     0.34166667 
   23000      100    0.001719742      0.0008832     0.34913669 
   23055      100   0.0017000789      0.0008832     0.34999085 
Loop time of 0.0149696 on 1 procs for 536 steps with 100 atoms, finish time Mon Jan 25 13:25:26 2021

timestep 9.149459602950468e-06
run 1 post no
Setting up run at Mon Jan 25 13:25:26 2021

Memory usage per processor = 8.60506 Mbytes
    Step    Atoms         KinEng         Volume           Time 
   23055      100   0.0017000789      0.0008832     0.34999085 
   23056      100   0.0017004109      0.0008832           0.35 
Loop time of 2.2172e-05 on 1 procs for 1 steps with 100 atoms, finish time Mon Jan 25 13:25:26 2021

timestep 1.5530193794273047e-05
run 536.0 post no
Setting up run at Mon Jan 25 13:25:26 2021

Memory usage per processor = 8.60506 Mbytes
    Step    Atoms         KinEng         Volume           Time 
   23056      100   0.0017004109      0.0008832           0.35 
   23592      100   0.0017229318      0.0008832     0.35832418 
Loop time of 0.0148014 on 1 procs for 536 steps with 100 atoms, finish time Mon Jan 25 13:25:26 2021

timestep 9.14945960300598e-06
run 1 post no
Setting up run at Mon Jan 25 13:25:26 2021

Memory usage per processor = 8.60506 Mbytes
    Step    Atoms         KinEng         Volume           Time 
   23592      100   0.0017229318      0.0008832     0.35832418 
   23593      100   0.0017228391      0.0008832     0.35833333 
Loop time of 2.1421e-05 on 1 procs for 1 steps with 100 atoms, finish time Mon Jan 25 13:25:26 2021

timestep 1.5530193794273047e-05
run 536.0 post no
Setting up run at Mon Jan 25 13:25:26 2021

Memory usage per processor = 8.60506 Mbytes
    Step    Atoms         KinEng         Volume           Time 
   23593      100   0.0017228391      0.0008832     0.35833333 
   24000      100   0.0015780069      0.0008832     0.36465412 
   24129      100    0.001463674      0.0008832     0.36665752 
Loop time of 0.0146971 on 1 procs for 536 steps with 100 atoms, finish time Mon Jan 25 13:25:26 2021

timestep 9.149459602950468e-06
run 1 post no
Setting up run at Mon Jan 25 13:25:26 2021

Memory usage per processor = 8.60506 Mbytes
    Step    Atoms         KinEng         Volume           Time 
   24129      100    0.001463674      0.0008832     0.36665752 
   24130      100   0.0014636074      0.0008832     0.36666667 
Loop time of 2.0399e-05 on 1 procs for 1 steps with 100 atoms, finish time Mon Jan 25 13:25:26 2021

timestep 1.5530193794273047e-05
run 536.0 post no
Setting up run at Mon Jan 25 13:25:26 2021

Memory usage per processor = 8.60506 Mbytes
    Step    Atoms         KinEng         Volume           Time 
   24130      100   0.0014636074      0.0008832     0.36666667 
   24666      100    0.001644522      0.0008832     0.37499085 
Loop time of 0.0138824 on 1 procs for 536 steps with 100 atoms, finish time Mon Jan 25 13:25:26 2021

timestep 9.14945960300598e-06
run 1 post no
Setting up run at Mon Jan 25 13:25:26 2021

Memory usage per processor = 8.60506 Mbytes
    Step    Atoms         KinEng         Volume           Time 
   24666      100    0.001644522      0.0008832     0.37499085 
   24667      100   0.0016444577      0.0008832          0.375 
Loop time of 2.1581e-05 on 1 procs for 1 steps with 100 atoms, finish time Mon Jan 25 13:25:26 2021

timestep 1.5530193794273047e-05
run 536.0 post no
Setting up run at Mon Jan 25 13:25:26 2021

Memory usage per processor = 8.60506 Mbytes
    Step    Atoms         KinEng         Volume           Time 
   24667      100   0.0016444577      0.0008832          0.375 
   25000      100   0.0016721513      0.0008832     0.38017155 
   25203      100   0.0015575034      0.0008832     0.38332418 
Loop time of 0.0150506 on 1 procs for 536 steps with 100 atoms, finish time Mon Jan 25 13:25:26 2021

timestep 9.149459602950468e-06
run 1 post no
Setting up run at Mon Jan 25 13:25:26 2021

Memory usage per processor = 8.60506 Mbytes
    Step    Atoms         KinEng         Volume           Time 
   25203      100   0.0015575034      0.0008832     0.38332418 
   25204      100   0.0015574292      0.0008832     0.38333333 
Loop time of 2.125e-05 on 1 procs for 1 steps with 100 atoms, finish time Mon Jan 25 13:25:26 2021

timestep 1.5530193794273047e-05
run 536.0 post no
Setting up run at Mon Jan 25 13:25:26 2021

Memory usage per processor = 8.60506 Mbytes
    Step    Atoms         KinEng         Volume           Time 
   25204      100   0.0015574292      0.0008832     0.38333333 
   25740      100   0.0013271029      0.0008832     0.39165752 
Loop time of 0.0139657 on 1 procs for 536 steps with 100 atoms, finish time Mon Jan 25 13:25:26 2021

timestep 9.14945960300598e-06
run 1 post no
Setting up run at Mon Jan 25 13:25:26 2021

Memory usage per processor = 8.60506 Mbytes
    Step    Atoms         KinEng         Volume           Time 
   25740      100   0.0013271029      0.0008832     0.39165752 
   25741      100    0.001327058      0.0008832     0.39166667 
Loop time of 2.1962e-05 on 1 procs for 1 steps with 100 atoms, finish time Mon Jan 25 13:25:26 2021

timestep 1.5530193794273047e-05
run 536.0 post no
Setting up run at Mon Jan 25 13:25:26 2021

Memory usage per processor = 8.60506 Mbytes
    Step    Atoms         KinEng         Volume           Time 
   25741      100    0.001327058      0.0008832     0.39166667 
   26000      100   0.0017364545      0.0008832     0.39568899 
   26277      100   0.0017029609      0.0008832     0.39999085 
Loop time of 0.01569 on 1 procs for 536 steps with 100 atoms, finish time Mon Jan 25 13:25:26 2021

timestep 9.14945960300598e-06
run 1 post no
Setting up run at Mon Jan 25 13:25:26 2021

Memory usage per processor = 8.60506 Mbytes
    Step    Atoms         KinEng         Volume           Time 
   26277      100   0.0017029609      0.0008832     0.39999085 
   26278      100   0.0017028812      0.0008832            0.4 
Loop time of 2.1852e-05 on 1 procs for 1 steps with 100 atoms, finish time Mon Jan 25 13:25:26 2021

timestep 1.5530193794273047e-05
run 536.0 post no
Setting up run at Mon Jan 25 13:25:26 2021

Memory usage per processor = 8.60506 Mbytes
    Step    Atoms         KinEng         Volume           Time 
   26278      100   0.0017028812      0.0008832            0.4 
   26814      100   0.0014023983      0.0008832     0.40832418 
Loop time of 0.0142075 on 1 procs for 536 steps with 100 atoms, finish time Mon Jan 25 13:25:26 2021

timestep 9.149459602950468e-06
run 1 post no
Setting up run at Mon Jan 25 13:25:26 2021

Memory usage per processor = 8.60506 Mbytes
    Step    Atoms         KinEng         Volume           Time 
   26814      100   0.0014023983      0.0008832     0.40832418 
   26815      100   0.0014023651      0.0008832     0.40833333 
Loop time of 2.1501e-05 on 1 procs for 1 steps with 100 atoms, finish time Mon Jan 25 13:25:26 2021

timestep 1.5530193794273047e-05
run 536.0 post no
Setting up run at Mon Jan 25 13:25:26 2021

Memory usage per processor = 8.60506 Mbytes
    Step    Atoms         KinEng         Volume           Time 
   26815      100   0.0014023651      0.0008832     0.40833333 
   27000      100   0.0012880156      0.0008832     0.41120642 
   27351      100   0.0020125421      0.0008832     0.41665752 
Loop time of 0.0144902 on 1 procs for 536 steps with 100 atoms, finish time Mon Jan 25 13:25:26 2021

timestep 9.14945960300598e-06
run 1 post no
Setting up run at Mon Jan 25 13:25:26 2021

Memory usage per processor = 8.60506 Mbytes
    Step    Atoms         KinEng         Volume           Time 
   27351      100   0.0020125421      0.0008832     0.41665752 
   27352      100   0.0020124451      0.0008832     0.41666667 
Loop time of 2.2332e-05 on 1 procs for 1 steps with 100 atoms, finish time Mon Jan 25 13:25:26 2021

timestep 1.5530193794273047e-05
run 536.0 post no
Setting up run at Mon Jan 25 13:25:26 2021

Memory usage per processor = 8.60506 Mbytes
    Step    Atoms         KinEng         Volume           Time 
   27352      100   0.0020124451      0.0008832     0.41666667 
   27888      100   0.0014839225      0.0008832     0.42499085 
Loop time of 0.015156 on 1 procs for 536 steps with 100 atoms, finish time Mon Jan 25 13:25:26 2021

timestep 9.149459602950468e-06
run 1 post no
Setting up run at Mon Jan 25 13:25:26 2021

Memory usage per processor = 8.60506 Mbytes
    Step    Atoms         KinEng         Volume           Time 
   27888      100   0.0014839225      0.0008832     0.42499085 
   27889      100   0.0014838503      0.0008832          0.425 
Loop time of 2.1551e-05 on 1 procs for 1 steps with 100 atoms, finish time Mon Jan 25 13:25:26 2021

timestep 1.5530193794273047e-05
run 536.0 post no
Setting up run at Mon Jan 25 13:25:26 2021

Memory usage per processor = 8.60506 Mbytes
    Step    Atoms         KinEng         Volume           Time 
   27889      100   0.0014838503      0.0008832          0.425 
   28000      100   0.0014299102      0.0008832     0.42672385 
   28425      100   0.0013001343      0.0008832     0.43332418 
Loop time of 0.0139593 on 1 procs for 536 steps with 100 atoms, finish time Mon Jan 25 13:25:26 2021

timestep 9.14945960300598e-06
run 1 post no
Setting up run at Mon Jan 25 13:25:26 2021

Memory usage per processor = 8.60506 Mbytes
    Step    Atoms         KinEng         Volume           Time 
   28425      100   0.0013001343      0.0008832     0.43332418 
   28426      100   0.0013001189      0.0008832     0.43333333 
Loop time of 2.2573e-05 on 1 procs for 1 steps with 100 atoms, finish time Mon Jan 25 13:25:26 2021

timestep 1.5530193794273047e-05
run 536.0 post no
Setting up run at Mon Jan 25 13:25:26 2021

Memory usage per processor = 8.60506 Mbytes
    Step    Atoms         KinEng         Volume           Time 
   28426      100   0.0013001189      0.0008832     0.43333333 
   28962      100   0.0013410595      0.0008832     0.44165752 
Loop time of 0.0138848 on 1 procs for 536 steps with 100 atoms, finish time Mon Jan 25 13:25:26 2021

timestep 9.149459602950468e-06
run 1 post no
Setting up run at Mon Jan 25 13:25:26 2021

Memory usage per processor = 8.60506 Mbytes
    Step    Atoms         KinEng         Volume           Time 
   28962      100   0.0013410595      0.0008832     0.44165752 
   28963      100     0.00134106      0.0008832     0.44166667 
Loop time of 1.9868e-05 on 1 procs for 1 steps with 100 atoms, finish time Mon Jan 25 13:25:26 2021

timestep 1.5530193794273047e-05
run 536.0 post no
Setting up run at Mon Jan 25 13:25:26 2021

Memory usage per processor = 8.60506 Mbytes
    Step    Atoms         KinEng         Volume           Time 
   28963      100     0.00134106      0.0008832     0.44166667 
   29000      100   0.0013237357      0.0008832     0.44224128 
   29499      100    0.001097996      0.0008832     0.44999085 
Loop time of 0.0124251 on 1 procs for 536 steps with 100 atoms, finish time Mon Jan 25 13:25:26 2021

timestep 9.14945960300598e-06
run 1 post no
Setting up run at Mon Jan 25 13:25:26 2021

Memory usage per processor = 8.60506 Mbytes
    Step    Atoms         KinEng         Volume           Time 
   29499      100    0.001097996      0.0008832     0.44999085 
   29500      100   0.0010980444      0.0008832           0.45 
Loop time of 2.1e-05 on 1 procs for 1 steps with 100 atoms, finish time Mon Jan 25 13:25:26 2021

timestep 1.5530193794273047e-05
run 536.0 post no
Setting up run at Mon Jan 25 13:25:26 2021

Memory usage per processor = 8.60506 Mbytes
    Step    Atoms         KinEng         Volume           Time 
   29500      100   0.0010980444      0.0008832           0.45 
   30000      100   0.0015897843      0.0008832      0.4577651 
   30036      100   0.0015881971      0.0008832     0.45832418 
Loop time of 0.0137793 on 1 procs for 536 steps with 100 atoms, finish time Mon Jan 25 13:25:26 2021

timestep 9.149459602950468e-06
run 1 post no
Setting up run at Mon Jan 25 13:25:26 2021

Memory usage per processor = 8.60506 Mbytes
    Step    Atoms         KinEng         Volume           Time 
   30036      100   0.0015881971      0.0008832     0.45832418 
   30037      100   0.0015876898      0.0008832     0.45833333 
Loop time of 2.2012e-05 on 1 procs for 1 steps with 100 atoms, finish time Mon Jan 25 13:25:26 2021

timestep 1.5530193794273047e-05
run 536.0 post no
Setting up run at Mon Jan 25 13:25:26 2021

Memory usage per processor = 8.60506 Mbytes
    Step    Atoms         KinEng         Volume           Time 
   30037      100   0.0015876898      0.0008832     0.45833333 
   30573      100   0.0014128503      0.0008832     0.46665752 
Loop time of 0.0146242 on 1 procs for 536 steps with 100 atoms, finish time Mon Jan 25 13:25:26 2021

timestep 9.14945960300598e-06
run 1 post no
Setting up run at Mon Jan 25 13:25:26 2021

Memory usage per processor = 8.60506 Mbytes
    Step    Atoms         KinEng         Volume           Time 
   30573      100   0.0014128503      0.0008832     0.46665752 
   30574      100   0.0014130632      0.0008832     0.46666667 
Loop time of 2.1711e-05 on 1 procs for 1 steps with 100 atoms, finish time Mon Jan 25 13:25:26 2021

timestep 1.5530193794273047e-05
run 536.0 post no
Setting up run at Mon Jan 25 13:25:26 2021

Memory usage per processor = 8.60506 Mbytes
    Step    Atoms         KinEng         Volume           Time 
   30574      100   0.0014130632      0.0008832     0.46666667 
   31000      100   0.0014459881      0.0008832     0.47328253 
   31110      100   0.0016911798      0.0008832     0.47499085 
Loop time of 0.0147402 on 1 procs for 536 steps with 100 atoms, finish time Mon Jan 25 13:25:26 2021

timestep 9.149459602950468e-06
run 1 post no
Setting up run at Mon Jan 25 13:25:26 2021

Memory usage per processor = 8.60506 Mbytes
    Step    Atoms         KinEng         Volume           Time 
   31110      100   0.0016911798      0.0008832     0.47499085 
   31111      100   0.0016912847      0.0008832          0.475 
Loop time of 2.2393e-05 on 1 procs for 1 steps with 100 atoms, finish time Mon Jan 25 13:25:26 2021

timestep 1.5530193794273047e-05
run 536.0 post no
Setting up run at Mon Jan 25 13:25:26 2021

Memory usage per processor = 8.60506 Mbytes
    Step    Atoms         KinEng         Volume           Time 
   31111      100   0.0016912847      0.0008832          0.475 
   31647      100   0.0016432087      0.0008832     0.48332418 
Loop time of 0.0148661 on 1 procs for 536 steps with 100 atoms, finish time Mon Jan 25 13:25:26 2021

timestep 9.14945960300598e-06
run 1 post no
Setting up run at Mon Jan 25 13:25:26 2021

Memory usage per processor = 8.60506 Mbytes
    Step    Atoms         KinEng         Volume           Time 
   31647      100   0.0016432087      0.0008832     0.48332418 
   31648      100   0.0016432536      0.0008832     0.48333333 
Loop time of 2.0509e-05 on 1 procs for 1 steps with 100 atoms, finish time Mon Jan 25 13:25:26 2021

timestep 1.5530193794273047e-05
run 536.0 post no
Setting up run at Mon Jan 25 13:25:26 2021

Memory usage per processor = 8.60506 Mbytes
    Step    Atoms         KinEng         Volume           Time 
   31648      100   0.0016432536      0.0008832     0.48333333 
   32000      100    0.001448487      0.0008832     0.48879996 
   32184      100   0.0014046233      0.0008832     0.49165752 
Loop time of 0.015167 on 1 procs for 536 steps with 100 atoms, finish time Mon Jan 25 13:25:26 2021

timestep 9.149459602950468e-06
run 1 post no
Setting up run at Mon Jan 25 13:25:26 2021

Memory usage per processor = 8.60506 Mbytes
    Step    Atoms         KinEng         Volume           Time 
   32184      100   0.0014046233      0.0008832     0.49165752 
   32185      100   0.0014047147      0.0008832     0.49166667 
Loop time of 2.099e-05 on 1 procs for 1 steps with 100 atoms, finish time Mon Jan 25 13:25:26 2021

timestep 1.5530193794273047e-05
run 536.0 post no
Setting up run at Mon Jan 25 13:25:26 2021

Memory usage per processor = 8.60506 Mbytes
    Step    Atoms         KinEng         Volume           Time 
   32185      100   0.0014047147      0.0008832     0.49166667 
   32721      100   0.0018939056      0.0008832     0.49999085 
Loop time of 0.0156337 on 1 procs for 536 steps with 100 atoms, finish time Mon Jan 25 13:25:26 2021

timestep 9.14945960300598e-06
run 1 post no
Setting up run at Mon Jan 25 13:25:26 2021

Memory usage per processor = 8.60506 Mbytes
    Step    Atoms         KinEng         Volume           Time 
   32721      100   0.0018939056      0.0008832     0.49999085 
   32722      100   0.0018939263      0.0008832            0.5 
Loop time of 2.1441e-05 on 1 procs for 1 steps with 100 atoms, finish time Mon Jan 25 13:25:26 2021

timestep 1.5530193794273047e-05
run 536.0 post no
Setting up run at Mon Jan 25 13:25:26 2021

Memory usage per processor = 8.60506 Mbytes
    Step    Atoms         KinEng         Volume           Time 
   32722      100   0.0018939263      0.0008832            0.5 
   33000      100   0.0017478062      0.0008832     0.50431739 
   33258      100   0.0016813674      0.0008832     0.50832418 
Loop time of 0.0157616 on 1 procs for 536 steps with 100 atoms, finish time Mon Jan 25 13:25:26 2021

timestep 9.149459602950468e-06
run 1 post no
Setting up run at Mon Jan 25 13:25:26 2021

Memory usage per processor = 8.60506 Mbytes
    Step    Atoms         KinEng         Volume           Time 
   33258      100   0.0016813674      0.0008832     0.50832418 
   33259      100   0.0016814346      0.0008832     0.50833333 
Loop time of 1.8745e-05 on 1 procs for 1 steps with 100 atoms, finish time Mon Jan 25 13:25:26 2021

timestep 1.5530193794273047e-05
run 536.0 post no
Setting up run at Mon Jan 25 13:25:26 2021

Memory usage per processor = 8.60506 Mbytes
    Step    Atoms         KinEng         Volume           Time 
   33259      100   0.0016814346      0.0008832     0.50833333 
   33795      100   0.0024582073      0.0008832     0.51665752 
Loop time of 0.0158591 on 1 procs for 536 steps with 100 atoms, finish time Mon Jan 25 13:25:26 2021

timestep 9.149459602950468e-06
run 1 post no
Setting up run at Mon Jan 25 13:25:26 2021

Memory usage per processor = 8.60506 Mbytes
    Step    Atoms         KinEng         Volume           Time 
   33795      100   0.0024582073      0.0008832     0.51665752 
   33796      100    0.002458205      0.0008832     0.51666667 
Loop time of 2.1791e-05 on 1 procs for 1 steps with 100 atoms, finish time Mon Jan 25 13:25:26 2021

timestep 1.5530193794273047e-05
run 536.0 post no
Setting up run at Mon Jan 25 13:25:26 2021

Memory usage per processor = 8.60506 Mbytes
    Step    Atoms         KinEng         Volume           Time 
   33796      100    0.002458205      0.0008832     0.51666667 
   34000      100   0.0024318901      0.0008832     0.51983483 
   34332      100   0.0020947514      0.0008832     0.52499085 
Loop time of 0.0168509 on 1 procs for 536 steps with 100 atoms, finish time Mon Jan 25 13:25:26 2021

timestep 9.14945960306149e-06
run 1 post no
Setting up run at Mon Jan 25 13:25:26 2021

Memory usage per processor = 8.60506 Mbytes
    Step    Atoms         KinEng         Volume           Time 
   34332      100   0.0020947514      0.0008832     0.52499085 
   34333      100    0.002093864      0.0008832          0.525 
Loop time of 2.3625e-05 on 1 procs for 1 steps with 100 atoms, finish time Mon Jan 25 13:25:26 2021

timestep 1.5530193794273047e-05
run 536.0 post no
Setting up run at Mon Jan 25 13:25:26 2021

Memory usage per processor = 8.60506 Mbytes
    Step    Atoms         KinEng         Volume           Time 
   34333      100    0.002093864      0.0008832          0.525 
   34869      100   0.0017719104      0.0008832     0.53332418 
Loop time of 0.0161155 on 1 procs for 536 steps with 100 atoms, finish time Mon Jan 25 13:25:26 2021

timestep 9.149459602950468e-06
run 1 post no
Setting up run at Mon Jan 25 13:25:26 2021

Memory usage per processor = 8.60506 Mbytes
    Step    Atoms         KinEng         Volume           Time 
   34869      100   0.0017719104      0.0008832     0.53332418 
   34870      100   0.0017756793      0.0008832     0.53333333 
Loop time of 2.1892e-05 on 1 procs for 1 steps with 100 atoms, finish time Mon Jan 25 13:25:26 2021

timestep 1.5530193794273047e-05
run 536.0 post no
Setting up run at Mon Jan 25 13:25:26 2021

Memory usage per processor = 8.60506 Mbytes
    Step    Atoms         KinEng         Volume           Time 
   34870      100   0.0017756793      0.0008832     0.53333333 
   35000      100   0.0018333022      0.0008832     0.53535226 
   35406      100   0.0017587899      0.0008832     0.54165752 
Loop time of 0.015231 on 1 procs for 536 steps with 100 atoms, finish time Mon Jan 25 13:25:26 2021

timestep 9.149459602950468e-06
run 1 post no
Setting up run at Mon Jan 25 13:25:26 2021

Memory usage per processor = 8.60506 Mbytes
    Step    Atoms         KinEng         Volume           Time 
   35406      100   0.0017587899      0.0008832     0.54165752 
   35407      100   0.0017588282      0.0008832     0.54166667 
Loop time of 2.1811e-05 on 1 procs for 1 steps with 100 atoms, finish time Mon Jan 25 13:25:26 2021

timestep 1.5530193794273047e-05
run 536.0 post no
Setting up run at Mon Jan 25 13:25:26 2021

Memory usage per processor = 8.60506 Mbytes
    Step    Atoms         KinEng         Volume           Time 
   35407      100   0.0017588282      0.0008832     0.54166667 
   35943      100   0.0015085778      0.0008832     0.54999085 
Loop time of 0.0147945 on 1 procs for 536 steps with 100 atoms, finish time Mon Jan 25 13:25:26 2021

timestep 9.14945960306149e-06
run 1 post no
Setting up run at Mon Jan 25 13:25:26 2021

Memory usage per processor = 8.60506 Mbytes
    Step    Atoms         KinEng         Volume           Time 
   35943      100   0.0015085778      0.0008832     0.54999085 
   35944      100   0.0015086627      0.0008832           0.55 
Loop time of 2.1961e-05 on 1 procs for 1 steps with 100 atoms, finish time Mon Jan 25 13:25:26 2021

timestep 1.5530193794273047e-05
run 536.0 post no
Setting up run at Mon Jan 25 13:25:26 2021

Memory usage per processor = 8.60506 Mbytes
    Step    Atoms         KinEng         Volume           Time 
   35944      100   0.0015086627      0.0008832           0.55 
   36000      100    0.001504063      0.0008832     0.55086969 
   36480      100   0.0020282807      0.0008832     0.55832418 
Loop time of 0.0158586 on 1 procs for 536 steps with 100 atoms, finish time Mon Jan 25 13:25:26 2021

timestep 9.149459602950468e-06
run 1 post no
Setting up run at Mon Jan 25 13:25:26 2021

Memory usage per processor = 8.60506 Mbytes
    Step    Atoms         KinEng         Volume           Time 
   36480      100   0.0020282807      0.0008832     0.55832418 
   36481      100   0.0020282239      0.0008832     0.55833333 
Loop time of 2.3574e-05 on 1 procs for 1 steps with 100 atoms, finish time Mon Jan 25 13:25:26 2021

timestep 1.5530193794273047e-05
run 536.0 post no
Setting up run at Mon Jan 25 13:25:26 2021

Memory usage per processor = 8.60506 Mbytes
    Step    Atoms         KinEng         Volume           Time 
   36481      100   0.0020282239      0.0008832     0.55833333 
   37000      100   0.0016649744      0.0008832      0.5663935 
   37017      100   0.0016639449      0.0008832     0.56665752 
Loop time of 0.0149178 on 1 procs for 536 steps with 100 atoms, finish time Mon Jan 25 13:25:26 2021

timestep 9.149459602950468e-06
run 1 post no
Setting up run at Mon Jan 25 13:25:26 2021

Memory usage per processor = 8.60506 Mbytes
    Step    Atoms         KinEng         Volume           Time 
   37017      100   0.0016639449      0.0008832     0.56665752 
   37018      100   0.0016639864      0.0008832     0.56666667 
Loop time of 2.7843e-05 on 1 procs for 1 steps with 100 atoms, finish time Mon Jan 25 13:25:26 2021

timestep 1.5530193794273047e-05
run 536.0 post no
Setting up run at Mon Jan 25 13:25:26 2021

Memory usage per processor = 8.60506 Mbytes
    Step    Atoms         KinEng         Volume           Time 
   37018      100   0.0016639864      0.0008832     0.56666667 
   37554      100   0.0019279208      0.0008832     0.57499085 
Loop time of 0.0145105 on 1 procs for 536 steps with 100 atoms, finish time Mon Jan 25 13:25:26 2021

timestep 9.149459602950468e-06
run 1 post no
Setting up run at Mon Jan 25 13:25:26 2021

Memory usage per processor = 8.60506 Mbytes
    Step    Atoms         KinEng         Volume           Time 
   37554      100   0.0019279208      0.0008832     0.57499085 
   37555      100   0.0019777572      0.0008832          0.575 
Loop time of 2.2904e-05 on 1 procs for 1 steps with 100 atoms, finish time Mon Jan 25 13:25:26 2021

timestep 1.5530193794273047e-05
run 536.0 post no
Setting up run at Mon Jan 25 13:25:26 2021

Memory usage per processor = 8.60506 Mbytes
    Step    Atoms         KinEng         Volume           Time 
   37555      100   0.0019777572      0.0008832          0.575 
   38000      100   0.0018960187      0.0008832     0.58191094 
   38091      100   0.0018051446      0.0008832     0.58332418 
Loop time of 0.0161199 on 1 procs for 536 steps with 100 atoms, finish time Mon Jan 25 13:25:26 2021

timestep 9.14945960306149e-06
run 1 post no
Setting up run at Mon Jan 25 13:25:26 2021

Memory usage per processor = 8.60506 Mbytes
    Step    Atoms         KinEng         Volume           Time 
   38091      100   0.0018051446      0.0008832     0.58332418 
   38092      100   0.0018051186      0.0008832     0.58333333 
Loop time of 2.1461e-05 on 1 procs for 1 steps with 100 atoms, finish time Mon Jan 25 13:25:26 2021

timestep 1.5530193794273047e-05
run 536.0 post no
Setting up run at Mon Jan 25 13:25:26 2021

Memory usage per processor = 8.60506 Mbytes
    Step    Atoms         KinEng         Volume           Time 
   38092      100   0.0018051186      0.0008832     0.58333333 
   38628      100   0.0014660524      0.0008832     0.59165752 
Loop time of 0.0142665 on 1 procs for 536 steps with 100 atoms, finish time Mon Jan 25 13:25:26 2021

timestep 9.149459602950468e-06
run 1 post no
Setting up run at Mon Jan 25 13:25:26 2021

Memory usage per processor = 8.60506 Mbytes
    Step    Atoms         KinEng         Volume           Time 
   38628      100   0.0014660524      0.0008832     0.59165752 
   38629      100   0.0014660476      0.0008832     0.59166667 
Loop time of 2.1752e-05 on 1 procs for 1 steps with 100 atoms, finish time Mon Jan 25 13:25:26 2021

timestep 1.5530193794273047e-05
run 536.0 post no
Setting up run at Mon Jan 25 13:25:26 2021

Memory usage per processor = 8.60506 Mbytes
    Step    Atoms         KinEng         Volume           Time 
   38629      100   0.0014660476      0.0008832     0.59166667 
   39000      100   0.0020674881      0.0008832     0.59742837 
   39165      100   0.0018123506      0.0008832     0.59999085 
Loop time of 0.0152611 on 1 procs for 536 steps with 100 atoms, finish time Mon Jan 25 13:25:26 2021

timestep 9.149459602950468e-06
run 1 post no
Setting up run at Mon Jan 25 13:25:26 2021

Memory usage per processor = 8.60506 Mbytes
    Step    Atoms         KinEng         Volume           Time 
   39165      100   0.0018123506      0.0008832     0.59999085 
   39166      100   0.0018122949      0.0008832            0.6 
Loop time of 2.3234e-05 on 1 procs for 1 steps with 100 atoms, finish time Mon Jan 25 13:25:26 2021

timestep 1.5530193794273047e-05
run 536.0 post no
Setting up run at Mon Jan 25 13:25:26 2021

Memory usage per processor = 8.60506 Mbytes
    Step    Atoms         KinEng         Volume           Time 
   39166      100   0.0018122949      0.0008832            0.6 
   39702      100   0.0013527675      0.0008832     0.60832418 
Loop time of 0.0143853 on 1 procs for 536 steps with 100 atoms, finish time Mon Jan 25 13:25:26 2021

timestep 9.149459602950468e-06
run 1 post no
Setting up run at Mon Jan 25 13:25:26 2021

Memory usage per processor = 8.60506 Mbytes
    Step    Atoms         KinEng         Volume           Time 
   39702      100   0.0013527675      0.0008832     0.60832418 
   39703      100   0.0013527594      0.0008832     0.60833333 
Loop time of 2.1862e-05 on 1 procs for 1 steps with 100 atoms, finish time Mon Jan 25 13:25:26 2021

timestep 1.5530193794273047e-05
run 536.0 post no
Setting up run at Mon Jan 25 13:25:26 2021

Memory usage per processor = 8.60506 Mbytes
    Step    Atoms         KinEng         Volume           Time 
   39703      100   0.0013527594      0.0008832     0.60833333 
   40000      100   0.0013922018      0.0008832      0.6129458 
   40239      100   0.0014118538      0.0008832     0.61665752 
Loop time of 0.0137861 on 1 procs for 536 steps with 100 atoms, finish time Mon Jan 25 13:25:26 2021

timestep 9.14945960306149e-06
run 1 post no
Setting up run at Mon Jan 25 13:25:26 2021

Memory usage per processor = 8.60506 Mbytes
    Step    Atoms         KinEng         Volume           Time 
   40239      100   0.0014118538      0.0008832     0.61665752 
   40240      100   0.0014576276      0.0008832     0.61666667 
Loop time of 2.3103e-05 on 1 procs for 1 steps with 100 atoms, finish time Mon Jan 25 13:25:26 2021

timestep 1.5530193794273047e-05
run 536.0 post no
Setting up run at Mon Jan 25 13:25:26 2021

Memory usage per processor = 8.60506 Mbytes
    Step    Atoms         KinEng         Volume           Time 
   40240      100   0.0014576276      0.0008832     0.61666667 
   40776      100   0.0013272812      0.0008832     0.62499085 
Loop time of 0.0142307 on 1 procs for 536 steps with 100 atoms, finish time Mon Jan 25 13:25:26 2021

timestep 9.149459602950468e-06
run 1 post no
Setting up run at Mon Jan 25 13:25:26 2021

Memory usage per processor = 8.60506 Mbytes
    Step    Atoms         KinEng         Volume           Time 
   40776      100   0.0013272812      0.0008832     0.62499085 
   40777      100   0.0013272458      0.0008832          0.625 
Loop time of 2.0569e-05 on 1 procs for 1 steps with 100 atoms, finish time Mon Jan 25 13:25:26 2021

timestep 1.5530193794273047e-05
run 536.0 post no
Setting up run at Mon Jan 25 13:25:26 2021

Memory usage per processor = 8.60506 Mbytes
    Step    Atoms         KinEng         Volume           Time 
   40777      100   0.0013272458      0.0008832          0.625 
   41000      100   0.0012484358      0.0008832     0.62846323 
   41313      100   0.0011236595      0.0008832     0.63332418 
Loop time of 0.0125534 on 1 procs for 536 steps with 100 atoms, finish time Mon Jan 25 13:25:26 2021

timestep 9.149459602950468e-06
run 1 post no
Setting up run at Mon Jan 25 13:25:26 2021

Memory usage per processor = 8.60506 Mbytes
    Step    Atoms         KinEng         Volume           Time 
   41313      100   0.0011236595      0.0008832     0.63332418 
   41314      100   0.0011236708      0.0008832     0.63333333 
Loop time of 2.1421e-05 on 1 procs for 1 steps with 100 atoms, finish time Mon Jan 25 13:25:26 2021

timestep 1.5530193794273047e-05
run 536.0 post no
Setting up run at Mon Jan 25 13:25:26 2021

Memory usage per processor = 8.60506 Mbytes
    Step    Atoms         KinEng         Volume           Time 
   41314      100   0.0011236708      0.0008832     0.63333333 
   41850      100    0.001419252      0.0008832     0.64165752 
Loop time of 0.0143204 on 1 procs for 536 steps with 100 atoms, finish time Mon Jan 25 13:25:26 2021

timestep 9.149459602950468e-06
run 1 post no
Setting up run at Mon Jan 25 13:25:26 2021

Memory usage per processor = 8.60506 Mbytes
    Step    Atoms         KinEng         Volume           Time 
   41850      100    0.001419252      0.0008832     0.64165752 
   41851      100   0.0014191515      0.0008832     0.64166667 
Loop time of 2.2362e-05 on 1 procs for 1 steps with 100 atoms, finish time Mon Jan 25 13:25:26 2021

timestep 1.5530193794273047e-05
run 536.0 post no
Setting up run at Mon Jan 25 13:25:26 2021

Memory usage per processor = 8.60506 Mbytes
    Step    Atoms         KinEng         Volume           Time 
   41851      100   0.0014191515      0.0008832     0.64166667 
   42000      100   0.0013733616      0.0008832     0.64398067 
   42387      100   0.0011906989      0.0008832     0.64999085 
Loop time of 0.0135567 on 1 procs for 536 steps with 100 atoms, finish time Mon Jan 25 13:25:26 2021

timestep 9.14945960306149e-06
run 1 post no
Setting up run at Mon Jan 25 13:25:26 2021

Memory usage per processor = 8.60506 Mbytes
    Step    Atoms         KinEng         Volume           Time 
   42387      100   0.0011906989      0.0008832     0.64999085 
   42388      100    0.001190713      0.0008832           0.65 
Loop time of 2.2012e-05 on 1 procs for 1 steps with 100 atoms, finish time Mon Jan 25 13:25:26 2021

timestep 1.5530193794273047e-05
run 536.0 post no
Setting up run at Mon Jan 25 13:25:26 2021

Memory usage per processor = 8.60506 Mbytes
    Step    Atoms         KinEng         Volume           Time 
   42388      100    0.001190713      0.0008832           0.65 
   42924      100   0.0013720225      0.0008832     0.65832418 
Loop time of 0.0135916 on 1 procs for 536 steps with 100 atoms, finish time Mon Jan 25 13:25:26 2021

timestep 9.149459602950468e-06
run 1 post no
Setting up run at Mon Jan 25 13:25:26 2021

[...]
                                                                                                                                                                                                                                                                                                                                                                                                                                                                                                                                                                                                                                                                                                                                                                                                                                                                                                                                                                                                                                                                                                                                                                                                                                                                                                                                                                                                                                                                                                                                                                                                                                                                                                                                                                                                                                                                                                                                                                                                                                                                                                                                                                                                                                                                                                                                                                                                                                                                                                                                                                                                                                                                                                                                                                                                                                                                                                                                                                                                                                                                                                                                                                                                                                                                                                                                                                                                                                                                                                                                                                                                                                                                                                                                                                                                                                                                                                                                                                                                                                                                                                                                                                                                                                                                                                                                                                                                                                                                                                                                                                                                                                                                                                                                                                                                                                                                                                                                                                                                                                                                                                                                                                                                                                                                                                                                                                                                                                                                                                                                                                                                                                                                                                                                                                                                                                                                                                                                                                                                                                                                                                                                                                                                                                                                                                                                                                                                                                                                                                                                                                                                                                                                                                                                                                                                                                                                                                                                                                                                                                                                                                                                                                                                                                                                                                                                                                                                                                                                                                                                                                                                                                                                                                                                                                                                                                                                                                                                                                                                                                                                                                                                                                                                                                                                                                                                                                                                                                                                                                                                                                                                                                                                                                                                                                                                                                                                                                                                                                                                                                                                                                                                                                                                                                                                                                                                                                                                                                                                                                                                                                                                                                                                                                                                                                                                                                                                                                                                                                                                                                                                                                                                                                                                                                                                                                                                                                                                                                                                                                                                                                                                                                                                                                                                                                                                                                                                                                                                                                                                                                                                                                                                                                                                                                                                                                                                                                                                                                                                                                                                                                                                                                                                                                                                                                                                                                                                                                                                                                                                                                                                                                                                                                                                                                                                                                                                                                                                                                                                                                                                                                                                                                                                                                                                                                                                                                                                                                                                                                                                                                                                                                                                                                                                                                                                                                                                                                                                                                                                                                                                                                                                                                                                                                                                                                                                                                                                                                                                                                                                                                                                                                                                                                                                                                                                                                                                                                                                                                                                                                                                                                                                                                                                                                                                                                                                                                                                                                                                                                                                                                                                                                                                                                                                                                                                                                                                                                                                                                                                                                                                                                                                                                                                                                                                                                                                                                                                                                                                                                                                                                                                                                                                                                                                                                                                                                                                                                                                                                                                                                                                                                                                                                                                                                                                                                                                                                                                                                                                                                                                                                                                                                                                                                                                                                                                                                                                                                                                                                                                                                                                                                                                                                                                                                                                                                                                                                                                                                                                                                                                                                                                                                                                                                                                                                                                                                                                                                                                                                                                                                                                                                                                                                                                                                                                                                                                                                                                                                                                                                                                                                                                                                                                                                                                                                                                                                                                                                                                                                                                                                                                                                                                                                                                                                                                                                                                                                                                                                                                                                                                                                                                                                                                                                                                                                                                                                                                                                                                                                                                                                                                                                                                                                                                                                                                                                                                                 timestep 1e-06
