#
# Simulating microcrystalline cellulose (MCC) particles; see the `psd_fractions.py` for
# the particle size distribution, as measured with a Canty Solidsizer.


# Simulation constants
variable timestep       equal 1e-5
variable rotationPeriod equal 60/45         # s per revolution
variable N equal 29954.0
variable NRate          equal ${N}/0.1      # Particle insertion rate
variable NRate          equal 29954/0.1      


variable youngmodP      equal 5e6
variable poissP         equal 0.3

variable fricPP equal 0.3197
variable fricPW equal 0.3197
variable fricPSW equal 0.3197
variable fricPSW        equal 0.3197        # Optimise
variable fric           equal 0.5           # Dummy value, Wall-Sidewall
variable fricRollPP equal 0.00248
variable fricRollPW equal 0.00248
variable fricRollPSW equal 0.00248
variable fricRollPSW    equal 0.00248       # Optimise
variable fricRoll       equal 0.00248       # Dummy value, Wall-Sidewall

variable corPP          equal 0.3           # Optimise
variable corPW          equal 0.3           # Optimise
variable corPSW         equal 0.3           # Optimise
variable cor            equal 0.3           # Dummy value, Wall-Sidewall

variable cohPP          equal 0             # Optimise
variable cohPW          equal 0             # Optimise
variable cohPSW         equal 0             # Optimise
variable coh            equal 0             # Dummy value, Wall-Sidewall

variable dens           equal 1580.0


# Particle Size Distribution
variable r0 equal 1050e-6/2
variable r1 equal 1100e-6/2
variable r2 equal 1150e-6/2
variable r3 equal 1200e-6/2
variable r4 equal 1250e-6/2
variable r5 equal 1300e-6/2
variable r6 equal 1350e-6/2
variable r7 equal 1400e-6/2
variable r8 equal 1450e-6/2
variable r9 equal 1500e-6/2


variable p0 equal 0.0064659
variable p1 equal 0.07387693
variable p2 equal 0.26249571
variable p3 equal 0.25249525
variable p4 equal 0.17012964
variable p5 equal 0.10530736
variable p6 equal 0.06885834
variable p7 equal 0.03662696
variable p8 equal 0.01861549
variable p9 equal 0.00512842


# Set up rotating drum
atom_style      granular
atom_modify map array

boundary        f f f       # non-periodic
newton          off         # Sets newtons 3rd law on or off
communicate     single vel yes
units           si


# Simulated region
region domain block -0.048 0.048 -0.025 0.025 -0.048 0.048 units box
create_box 3 domain
Created orthogonal box = (-0.048 -0.025 -0.048) to (0.048 0.025 0.048)
  1 by 1 by 1 MPI processor grid


# Set up the neighbor-list
neighbor        0.0008  bin
neigh_modify    delay   0
hard_particles  yes
soft_particles  yes


# Particle / wall contact properties
fix m1 all property/global youngsModulus peratomtype     ${youngmodP}    ${youngmodP}    ${youngmodP}
fix m1 all property/global youngsModulus peratomtype     5000000    ${youngmodP}    ${youngmodP}
fix m1 all property/global youngsModulus peratomtype     5000000    5000000    ${youngmodP}
fix m1 all property/global youngsModulus peratomtype     5000000    5000000    5000000

fix m2 all property/global poissonsRatio peratomtype     ${poissP}       ${poissP}       ${poissP}
fix m2 all property/global poissonsRatio peratomtype     0.3       ${poissP}       ${poissP}
fix m2 all property/global poissonsRatio peratomtype     0.3       0.3       ${poissP}
fix m2 all property/global poissonsRatio peratomtype     0.3       0.3       0.3

fix m3 all property/global coefficientFriction peratomtypepair 3     ${fricPP}       ${fricPW}       ${fricPSW}          ${fricPW}       ${fric}         ${fric}             ${fricPSW}      ${fric}         ${fric}
fix m3 all property/global coefficientFriction peratomtypepair 3     0.3197       ${fricPW}       ${fricPSW}          ${fricPW}       ${fric}         ${fric}             ${fricPSW}      ${fric}         ${fric}
fix m3 all property/global coefficientFriction peratomtypepair 3     0.3197       0.3197       ${fricPSW}          ${fricPW}       ${fric}         ${fric}             ${fricPSW}      ${fric}         ${fric}
fix m3 all property/global coefficientFriction peratomtypepair 3     0.3197       0.3197       0.3197          ${fricPW}       ${fric}         ${fric}             ${fricPSW}      ${fric}         ${fric}
fix m3 all property/global coefficientFriction peratomtypepair 3     0.3197       0.3197       0.3197          0.3197       ${fric}         ${fric}             ${fricPSW}      ${fric}         ${fric}
fix m3 all property/global coefficientFriction peratomtypepair 3     0.3197       0.3197       0.3197          0.3197       0.5         ${fric}             ${fricPSW}      ${fric}         ${fric}
fix m3 all property/global coefficientFriction peratomtypepair 3     0.3197       0.3197       0.3197          0.3197       0.5         0.5             ${fricPSW}      ${fric}         ${fric}
fix m3 all property/global coefficientFriction peratomtypepair 3     0.3197       0.3197       0.3197          0.3197       0.5         0.5             0.3197      ${fric}         ${fric}
fix m3 all property/global coefficientFriction peratomtypepair 3     0.3197       0.3197       0.3197          0.3197       0.5         0.5             0.3197      0.5         ${fric}
fix m3 all property/global coefficientFriction peratomtypepair 3     0.3197       0.3197       0.3197          0.3197       0.5         0.5             0.3197      0.5         0.5

fix m4 all property/global coefficientRollingFriction peratomtypepair 3     ${fricRollPP}   ${fricRollPW}   ${fricRollPSW}      ${fricRollPW}   ${fricRoll}     ${fricRoll}         ${fricRollPSW}  ${fricRoll}     ${fricRoll}
fix m4 all property/global coefficientRollingFriction peratomtypepair 3     0.00248   ${fricRollPW}   ${fricRollPSW}      ${fricRollPW}   ${fricRoll}     ${fricRoll}         ${fricRollPSW}  ${fricRoll}     ${fricRoll}
fix m4 all property/global coefficientRollingFriction peratomtypepair 3     0.00248   0.00248   ${fricRollPSW}      ${fricRollPW}   ${fricRoll}     ${fricRoll}         ${fricRollPSW}  ${fricRoll}     ${fricRoll}
fix m4 all property/global coefficientRollingFriction peratomtypepair 3     0.00248   0.00248   0.00248      ${fricRollPW}   ${fricRoll}     ${fricRoll}         ${fricRollPSW}  ${fricRoll}     ${fricRoll}
fix m4 all property/global coefficientRollingFriction peratomtypepair 3     0.00248   0.00248   0.00248      0.00248   ${fricRoll}     ${fricRoll}         ${fricRollPSW}  ${fricRoll}     ${fricRoll}
fix m4 all property/global coefficientRollingFriction peratomtypepair 3     0.00248   0.00248   0.00248      0.00248   0.00248     ${fricRoll}         ${fricRollPSW}  ${fricRoll}     ${fricRoll}
fix m4 all property/global coefficientRollingFriction peratomtypepair 3     0.00248   0.00248   0.00248      0.00248   0.00248     0.00248         ${fricRollPSW}  ${fricRoll}     ${fricRoll}
fix m4 all property/global coefficientRollingFriction peratomtypepair 3     0.00248   0.00248   0.00248      0.00248   0.00248     0.00248         0.00248  ${fricRoll}     ${fricRoll}
fix m4 all property/global coefficientRollingFriction peratomtypepair 3     0.00248   0.00248   0.00248      0.00248   0.00248     0.00248         0.00248  0.00248     ${fricRoll}
fix m4 all property/global coefficientRollingFriction peratomtypepair 3     0.00248   0.00248   0.00248      0.00248   0.00248     0.00248         0.00248  0.00248     0.00248

fix m5 all property/global coefficientRestitution peratomtypepair 3     ${corPP}        ${corPW}        ${corPSW}           ${corPW}        ${cor}          ${cor}              ${corPSW}       ${cor}          ${cor}
fix m5 all property/global coefficientRestitution peratomtypepair 3     0.3        ${corPW}        ${corPSW}           ${corPW}        ${cor}          ${cor}              ${corPSW}       ${cor}          ${cor}
fix m5 all property/global coefficientRestitution peratomtypepair 3     0.3        0.3        ${corPSW}           ${corPW}        ${cor}          ${cor}              ${corPSW}       ${cor}          ${cor}
fix m5 all property/global coefficientRestitution peratomtypepair 3     0.3        0.3        0.3           ${corPW}        ${cor}          ${cor}              ${corPSW}       ${cor}          ${cor}
fix m5 all property/global coefficientRestitution peratomtypepair 3     0.3        0.3        0.3           0.3        ${cor}          ${cor}              ${corPSW}       ${cor}          ${cor}
fix m5 all property/global coefficientRestitution peratomtypepair 3     0.3        0.3        0.3           0.3        0.3          ${cor}              ${corPSW}       ${cor}          ${cor}
fix m5 all property/global coefficientRestitution peratomtypepair 3     0.3        0.3        0.3           0.3        0.3          0.3              ${corPSW}       ${cor}          ${cor}
fix m5 all property/global coefficientRestitution peratomtypepair 3     0.3        0.3        0.3           0.3        0.3          0.3              0.3       ${cor}          ${cor}
fix m5 all property/global coefficientRestitution peratomtypepair 3     0.3        0.3        0.3           0.3        0.3          0.3              0.3       0.3          ${cor}
fix m5 all property/global coefficientRestitution peratomtypepair 3     0.3        0.3        0.3           0.3        0.3          0.3              0.3       0.3          0.3

fix m6 all property/global cohesionEnergyDensity peratomtypepair 3     ${cohPP}        ${cohPW}        ${cohPSW}           ${cohPW}        ${coh}          ${coh}              ${cohPSW}       ${coh}          ${coh}
fix m6 all property/global cohesionEnergyDensity peratomtypepair 3     0        ${cohPW}        ${cohPSW}           ${cohPW}        ${coh}          ${coh}              ${cohPSW}       ${coh}          ${coh}
fix m6 all property/global cohesionEnergyDensity peratomtypepair 3     0        0        ${cohPSW}           ${cohPW}        ${coh}          ${coh}              ${cohPSW}       ${coh}          ${coh}
fix m6 all property/global cohesionEnergyDensity peratomtypepair 3     0        0        0           ${cohPW}        ${coh}          ${coh}              ${cohPSW}       ${coh}          ${coh}
fix m6 all property/global cohesionEnergyDensity peratomtypepair 3     0        0        0           0        ${coh}          ${coh}              ${cohPSW}       ${coh}          ${coh}
fix m6 all property/global cohesionEnergyDensity peratomtypepair 3     0        0        0           0        0          ${coh}              ${cohPSW}       ${coh}          ${coh}
fix m6 all property/global cohesionEnergyDensity peratomtypepair 3     0        0        0           0        0          0              ${cohPSW}       ${coh}          ${coh}
fix m6 all property/global cohesionEnergyDensity peratomtypepair 3     0        0        0           0        0          0              0       ${coh}          ${coh}
fix m6 all property/global cohesionEnergyDensity peratomtypepair 3     0        0        0           0        0          0              0       0          ${coh}
fix m6 all property/global cohesionEnergyDensity peratomtypepair 3     0        0        0           0        0          0              0       0          0

fix m7 all property/global k_finnie peratomtypepair 3 1.0 1.0 1.0 1.0 1.0 1.0 1.0 1.0 1.0


# Contact pair styles
pair_style gran model hertz tangential history cohesion sjkr rolling_friction cdt
WARNING: 
	The contact model you specified is not located in any whitelist.
	Because of this the model will be run in an unoptimized version (increasing runtime by up to 20%).
	In order to optimize this model you have the following options:
		(i)  Run the genAutoExamplesWhitelist.sh script in your LIGGGHTS(R) source folder to automatically parse the input script
		(ii) Add the model combination by hand to your style_contact_model_user.whitelist that can be found in your LIGGGHTS(R) source folder
	If you perform one of the steps above LIGGGHTS(R) needs to be recompiled to generate the optimized code.

 (/home/andreinicusan/Prog/Coexist/coexist-testing/PICI-LIGGGHTS/src/contact_models.h:364)
pair_coeff * *


# Timestep size
timestep ${timestep}
timestep 1e-05


# Set gravity as a constant force
fix gravi all gravity 9.81 vector 0.0 0.0 -1.0


# STL Geometries: drum / faces
fix cad all mesh/surface/stress file    mesh/rotating_drum_mm.stl       type 2 scale 0.001 wear finnie
fix side all mesh/surface/stress file   mesh/rotating_drum_side_mm.stl  type 3 scale 0.001
fix inface all mesh/surface file        mesh/inface_mm.stl              type 3 scale 0.001 move 0.0 0.0 -0.02


# Wall contact models
fix granwalls all wall/gran model hertz tangential history rolling_friction cdt  mesh n_meshes 2 meshes cad side


# Particle Size Distribution
fix pts0 all particletemplate/sphere 15485863 atom_type 1 density constant ${dens} radius constant ${r0}
fix pts0 all particletemplate/sphere 15485863 atom_type 1 density constant 1580 radius constant ${r0}
fix pts0 all particletemplate/sphere 15485863 atom_type 1 density constant 1580 radius constant 0.000525
fix pts1 all particletemplate/sphere 20433971 atom_type 1 density constant ${dens} radius constant ${r1}
fix pts1 all particletemplate/sphere 20433971 atom_type 1 density constant 1580 radius constant ${r1}
fix pts1 all particletemplate/sphere 20433971 atom_type 1 density constant 1580 radius constant 0.00055
fix pts2 all particletemplate/sphere 20433977 atom_type 1 density constant ${dens} radius constant ${r2}
fix pts2 all particletemplate/sphere 20433977 atom_type 1 density constant 1580 radius constant ${r2}
fix pts2 all particletemplate/sphere 20433977 atom_type 1 density constant 1580 radius constant 0.000575
fix pts3 all particletemplate/sphere 20434457 atom_type 1 density constant ${dens} radius constant ${r3}
fix pts3 all particletemplate/sphere 20434457 atom_type 1 density constant 1580 radius constant ${r3}
fix pts3 all particletemplate/sphere 20434457 atom_type 1 density constant 1580 radius constant 0.0006
fix pts4 all particletemplate/sphere 20434553 atom_type 1 density constant ${dens} radius constant ${r4}
fix pts4 all particletemplate/sphere 20434553 atom_type 1 density constant 1580 radius constant ${r4}
fix pts4 all particletemplate/sphere 20434553 atom_type 1 density constant 1580 radius constant 0.000625
fix pts5 all particletemplate/sphere 20435099 atom_type 1 density constant ${dens} radius constant ${r5}
fix pts5 all particletemplate/sphere 20435099 atom_type 1 density constant 1580 radius constant ${r5}
fix pts5 all particletemplate/sphere 20435099 atom_type 1 density constant 1580 radius constant 0.00065
fix pts6 all particletemplate/sphere 20437121 atom_type 1 density constant ${dens} radius constant ${r6}
fix pts6 all particletemplate/sphere 20437121 atom_type 1 density constant 1580 radius constant ${r6}
fix pts6 all particletemplate/sphere 20437121 atom_type 1 density constant 1580 radius constant 0.000675
fix pts7 all particletemplate/sphere 20437457 atom_type 1 density constant ${dens} radius constant ${r7}
fix pts7 all particletemplate/sphere 20437457 atom_type 1 density constant 1580 radius constant ${r7}
fix pts7 all particletemplate/sphere 20437457 atom_type 1 density constant 1580 radius constant 0.0007
fix pts8 all particletemplate/sphere 20437687 atom_type 1 density constant ${dens} radius constant ${r8}
fix pts8 all particletemplate/sphere 20437687 atom_type 1 density constant 1580 radius constant ${r8}
fix pts8 all particletemplate/sphere 20437687 atom_type 1 density constant 1580 radius constant 0.000725
fix pts9 all particletemplate/sphere 20437811 atom_type 1 density constant ${dens} radius constant ${r9}
fix pts9 all particletemplate/sphere 20437811 atom_type 1 density constant 1580 radius constant ${r9}
fix pts9 all particletemplate/sphere 20437811 atom_type 1 density constant 1580 radius constant 0.00075


fix pdd all particledistribution/discrete/numberbased 49979693 10 pts0 ${p0}  pts1 ${p1}  pts2 ${p2}  pts3 ${p3}  pts4 ${p4}  pts5 ${p5}  pts6 ${p6}  pts7 ${p7}  pts8 ${p8}  pts9 ${p9}
fix pdd all particledistribution/discrete/numberbased 49979693 10 pts0 0.0064659  pts1 ${p1}  pts2 ${p2}  pts3 ${p3}  pts4 ${p4}  pts5 ${p5}  pts6 ${p6}  pts7 ${p7}  pts8 ${p8}  pts9 ${p9}
fix pdd all particledistribution/discrete/numberbased 49979693 10 pts0 0.0064659  pts1 0.07387693  pts2 ${p2}  pts3 ${p3}  pts4 ${p4}  pts5 ${p5}  pts6 ${p6}  pts7 ${p7}  pts8 ${p8}  pts9 ${p9}
fix pdd all particledistribution/discrete/numberbased 49979693 10 pts0 0.0064659  pts1 0.07387693  pts2 0.26249571  pts3 ${p3}  pts4 ${p4}  pts5 ${p5}  pts6 ${p6}  pts7 ${p7}  pts8 ${p8}  pts9 ${p9}
fix pdd all particledistribution/discrete/numberbased 49979693 10 pts0 0.0064659  pts1 0.07387693  pts2 0.26249571  pts3 0.25249525  pts4 ${p4}  pts5 ${p5}  pts6 ${p6}  pts7 ${p7}  pts8 ${p8}  pts9 ${p9}
fix pdd all particledistribution/discrete/numberbased 49979693 10 pts0 0.0064659  pts1 0.07387693  pts2 0.26249571  pts3 0.25249525  pts4 0.17012964  pts5 ${p5}  pts6 ${p6}  pts7 ${p7}  pts8 ${p8}  pts9 ${p9}
fix pdd all particledistribution/discrete/numberbased 49979693 10 pts0 0.0064659  pts1 0.07387693  pts2 0.26249571  pts3 0.25249525  pts4 0.17012964  pts5 0.10530736  pts6 ${p6}  pts7 ${p7}  pts8 ${p8}  pts9 ${p9}
fix pdd all particledistribution/discrete/numberbased 49979693 10 pts0 0.0064659  pts1 0.07387693  pts2 0.26249571  pts3 0.25249525  pts4 0.17012964  pts5 0.10530736  pts6 0.06885834  pts7 ${p7}  pts8 ${p8}  pts9 ${p9}
fix pdd all particledistribution/discrete/numberbased 49979693 10 pts0 0.0064659  pts1 0.07387693  pts2 0.26249571  pts3 0.25249525  pts4 0.17012964  pts5 0.10530736  pts6 0.06885834  pts7 0.03662696  pts8 ${p8}  pts9 ${p9}
fix pdd all particledistribution/discrete/numberbased 49979693 10 pts0 0.0064659  pts1 0.07387693  pts2 0.26249571  pts3 0.25249525  pts4 0.17012964  pts5 0.10530736  pts6 0.06885834  pts7 0.03662696  pts8 0.01861549  pts9 ${p9}
fix pdd all particledistribution/discrete/numberbased 49979693 10 pts0 0.0064659  pts1 0.07387693  pts2 0.26249571  pts3 0.25249525  pts4 0.17012964  pts5 0.10530736  pts6 0.06885834  pts7 0.03662696  pts8 0.01861549  pts9 0.00512842


# Particle Insertion
fix ins all insert/stream   seed 32452867                                           distributiontemplate pdd                                nparticles ${N}                                         particlerate ${NRate}                                   overlapcheck yes                                        all_in no                                               vel constant 0.0 0.0 -0.5                               insertion_face inface extrude_length 0.03
fix ins all insert/stream   seed 32452867                                           distributiontemplate pdd                                nparticles 29954                                         particlerate ${NRate}                                   overlapcheck yes                                        all_in no                                               vel constant 0.0 0.0 -0.5                               insertion_face inface extrude_length 0.03
fix ins all insert/stream   seed 32452867                                           distributiontemplate pdd                                nparticles 29954                                         particlerate 299540                                   overlapcheck yes                                        all_in no                                               vel constant 0.0 0.0 -0.5                               insertion_face inface extrude_length 0.03


# Integration scheme
fix integr all nve/sphere


# Output settings, include total thermal energy
modify_timing on

thermo        1000
thermo_style  custom step atoms ke vol time
thermo_modify lost ignore norm no


# Save particle locations as VTK files straight from LIGGGHTS. The `coexist` library can also
# export data in the newer, more efficient XML-based VTU file format - without needing to link
# against a VTK library
# dump dmp all custom/vtk 1000 post/drum_*.vtk id type type x y z ix iy iz vx vy vz fx fy fz omegax omegay omegaz radius


# Rotate drum
fix move  all move/mesh mesh cad  rotate origin 0. 0. 0. axis  0. 1. 0. period ${rotationPeriod}
fix move  all move/mesh mesh cad  rotate origin 0. 0. 0. axis  0. 1. 0. period 1.33333333333333
fix move2 all move/mesh mesh side rotate origin 0. 0. 0. axis  0. 1. 0. period ${rotationPeriod}
fix move2 all move/mesh mesh side rotate origin 0. 0. 0. axis  0. 1. 0. period 1.33333333333333


# Run the first 10,000 timesteps to make sure all particles are inserted; driven by the
# `simulation_script.py`
# run 1000
run 233333.0 post no
Setting up run at Mon Dec  6 09:29:56 2021

WARNING: Fix mesh: Mesh contains highly skewed element, moving mesh (if used) will not parallelize well (/home/andreinicusan/Prog/Coexist/coexist-testing/PICI-LIGGGHTS/src/surface_mesh_I.h:657)
INFO: Particle insertion ins: 17972.400000 particles every 6000 steps - particle rate 299540.000000, (mass rate 4.581862e-01)
      29954 particles (mass 4.581862e-02) within 6000 steps
Memory usage per processor = 10.6601 Mbytes
    Step    Atoms         KinEng         Volume           Time 
       0        0              0      0.0004608              0 
INFO: Particle insertion ins: inserted 14862 particle templates (mass 2.382122e-02) at step 1
 - a total of 14862 particle templates (mass 2.382122e-02) inserted so far.
WARNING: Particle insertion: Less insertions than requested (/home/andreinicusan/Prog/Coexist/coexist-testing/PICI-LIGGGHTS/src/fix_insert.cpp:814)
    1000    14862   0.0037101693      0.0004608           0.01 
    2000    14862   0.0043171042      0.0004608           0.02 
    3000    14862   0.0045864585      0.0004608           0.03 
    4000    14862   0.0038821357      0.0004608           0.04 
    5000    14862    0.002713318      0.0004608           0.05 
    6000    14862   0.0012284631      0.0004608           0.06 
INFO: Particle insertion ins: inserted 15092 particle templates (mass 2.308640e-02) at step 6001
 - a total of 29954 particle templates (mass 4.690762e-02) inserted so far.
    7000    29954   0.0032646757      0.0004608           0.07 
    8000    29954   0.0030878163      0.0004608           0.08 
    9000    29954   0.0034080031      0.0004608           0.09 
   10000    29954   0.0046882946      0.0004608            0.1 
   11000    29954   0.0066436238      0.0004608           0.11 
   12000    29954    0.011120954      0.0004608           0.12 
   13000    29954     0.12874504      0.0004608           0.13 
   14000    29954    0.020902731      0.0004608           0.14 
   15000    29954   0.0044208724      0.0004608           0.15 
   16000    29954   0.0015331975      0.0004608           0.16 
   17000    29954  0.00085131438      0.0004608           0.17 
   18000    29954  0.00092771775      0.0004608           0.18 
   19000    29954   0.0015124473      0.0004608           0.19 
   20000    29954   0.0025286519      0.0004608            0.2 
   21000    29954   0.0039043894      0.0004608           0.21 
   22000    29954   0.0055466601      0.0004608           0.22 
   23000    29954   0.0072561648      0.0004608           0.23 
   24000    29954   0.0086390748      0.0004608           0.24 
   25000    29954   0.0085996446      0.0004608           0.25 
   26000    29954   0.0053727768      0.0004608           0.26 
   27000    29954  0.00093311496      0.0004608           0.27 
   28000    29954  0.00067010276      0.0004608           0.28 
   29000    29954   0.0005723711      0.0004608           0.29 
   30000    29954  0.00050289995      0.0004608            0.3 
   31000    29954  0.00048323251      0.0004608           0.31 
   32000    29954  0.00046287648      0.0004608           0.32 
   33000    29954  0.00046341907      0.0004608           0.33 
   34000    29954  0.00046518671      0.0004608           0.34 
   35000    29954  0.00046509113      0.0004608           0.35 
   36000    29954  0.00046366242      0.0004608           0.36 
   37000    29954  0.00046017669      0.0004608           0.37 
   38000    29954  0.00045552039      0.0004608           0.38 
   39000    29954  0.00044891998      0.0004608           0.39 
   40000    29954  0.00044249162      0.0004608            0.4 
   41000    29954  0.00043844668      0.0004608           0.41 
   42000    29954  0.00043480143      0.0004608           0.42 
   43000    29954  0.00043288458      0.0004608           0.43 
   44000    29954  0.00043563572      0.0004608           0.44 
   45000    29954  0.00045046734      0.0004608           0.45 
   46000    29954  0.00047064418      0.0004608           0.46 
   47000    29954  0.00050439299      0.0004608           0.47 
   48000    29954  0.00055404111      0.0004608           0.48 
   49000    29954  0.00061811937      0.0004608           0.49 
   50000    29954  0.00070201111      0.0004608            0.5 
   51000    29954  0.00079946555      0.0004608           0.51 
   52000    29954  0.00090280461      0.0004608           0.52 
   53000    29954  0.00099962409      0.0004608           0.53 
   54000    29954   0.0010995165      0.0004608           0.54 
   55000    29954   0.0011632525      0.0004608           0.55 
   56000    29954   0.0012002429      0.0004608           0.56 
   57000    29954   0.0011948941      0.0004608           0.57 
   58000    29954   0.0011617124      0.0004608           0.58 
   59000    29954   0.0011322537      0.0004608           0.59 
   60000    29954   0.0010971605      0.0004608            0.6 
   61000    29954    0.001052855      0.0004608           0.61 
   62000    29954   0.0010171503      0.0004608           0.62 
   63000    29954   0.0009896722      0.0004608           0.63 
   64000    29954    0.000958347      0.0004608           0.64 
   65000    29954  0.00094364713      0.0004608           0.65 
   66000    29954   0.0009120046      0.0004608           0.66 
   67000    29954  0.00089406278      0.0004608           0.67 
   68000    29954  0.00087776726      0.0004608           0.68 
   69000    29954  0.00086197444      0.0004608           0.69 
   70000    29954  0.00084304971      0.0004608            0.7 
   71000    29954  0.00083994265      0.0004608           0.71 
   72000    29954  0.00083447213      0.0004608           0.72 
   73000    29954  0.00081192658      0.0004608           0.73 
   74000    29954  0.00081743897      0.0004608           0.74 
   75000    29954  0.00081521072      0.0004608           0.75 
   76000    29954   0.0008197508      0.0004608           0.76 
   77000    29954  0.00082137289      0.0004608           0.77 
   78000    29954  0.00081604044      0.0004608           0.78 
   79000    29954  0.00081384541      0.0004608           0.79 
   80000    29954  0.00082036958      0.0004608            0.8 
   81000    29954  0.00082898497      0.0004608           0.81 
   82000    29954  0.00083772372      0.0004608           0.82 
   83000    29954   0.0008498252      0.0004608           0.83 
   84000    29954  0.00084214661      0.0004608           0.84 
   85000    29954  0.00084900756      0.0004608           0.85 
   86000    29954  0.00085630804      0.0004608           0.86 
   87000    29954  0.00085332599      0.0004608           0.87 
   88000    29954  0.00085799493      0.0004608           0.88 
   89000    29954  0.00086771427      0.0004608           0.89 
   90000    29954  0.00086332333      0.0004608            0.9 
   91000    29954  0.00085876534      0.0004608           0.91 
   92000    29954  0.00087116146      0.0004608           0.92 
   93000    29954  0.00086947426      0.0004608           0.93 
   94000    29954  0.00087975888      0.0004608           0.94 
   95000    29954  0.00088329044      0.0004608           0.95 
   96000    29954  0.00086964607      0.0004608           0.96 
   97000    29954  0.00086476209      0.0004608           0.97 
   98000    29954  0.00087237118      0.0004608           0.98 
   99000    29954  0.00086088541      0.0004608           0.99 
  100000    29954  0.00086622576      0.0004608              1 
  101000    29954  0.00085881889      0.0004608           1.01 
  102000    29954  0.00085848801      0.0004608           1.02 
  103000    29954  0.00086738042      0.0004608           1.03 
  104000    29954  0.00085372144      0.0004608           1.04 
  105000    29954  0.00085454374      0.0004608           1.05 
  106000    29954  0.00085207831      0.0004608           1.06 
  107000    29954  0.00085105828      0.0004608           1.07 
  108000    29954  0.00086221229      0.0004608           1.08 
  109000    29954  0.00085989126      0.0004608           1.09 
  110000    29954  0.00085511827      0.0004608            1.1 
  111000    29954   0.0008607964      0.0004608           1.11 
  112000    29954  0.00085054392      0.0004608           1.12 
  113000    29954   0.0008562498      0.0004608           1.13 
  114000    29954  0.00084921404      0.0004608           1.14 
  115000    29954  0.00085098209      0.0004608           1.15 
  116000    29954  0.00084380267      0.0004608           1.16 
  117000    29954  0.00084266761      0.0004608           1.17 
  118000    29954  0.00085239235      0.0004608           1.18 
  119000    29954   0.0008469377      0.0004608           1.19 
  120000    29954  0.00084595137      0.0004608            1.2 
  121000    29954   0.0008476175      0.0004608           1.21 
  122000    29954  0.00085288919      0.0004608           1.22 
  123000    29954  0.00085682537      0.0004608           1.23 
  124000    29954  0.00085384532      0.0004608           1.24 
  125000    29954   0.0008557187      0.0004608           1.25 
  126000    29954  0.00085690922      0.0004608           1.26 
  127000    29954  0.00086423623      0.0004608           1.27 
  128000    29954  0.00086848955      0.0004608           1.28 
  129000    29954   0.0008642703      0.0004608           1.29 
  130000    29954  0.00086290693      0.0004608            1.3 
  131000    29954  0.00086403643      0.0004608           1.31 
  132000    29954  0.00086852208      0.0004608           1.32 
  133000    29954  0.00085794915      0.0004608           1.33 
  134000    29954  0.00085741753      0.0004608           1.34 
  135000    29954  0.00085455145      0.0004608           1.35 
  136000    29954    0.000853382      0.0004608           1.36 
  137000    29954  0.00084640721      0.0004608           1.37 
  138000    29954  0.00084854892      0.0004608           1.38 
  139000    29954   0.0008513899      0.0004608           1.39 
  140000    29954  0.00085546812      0.0004608            1.4 
  141000    29954  0.00086616615      0.0004608           1.41 
  142000    29954  0.00085550343      0.0004608           1.42 
  143000    29954  0.00085649449      0.0004608           1.43 
  144000    29954  0.00085689646      0.0004608           1.44 
  145000    29954  0.00086964379      0.0004608           1.45 
  146000    29954  0.00086534679      0.0004608           1.46 
  147000    29954   0.0008596306      0.0004608           1.47 
  148000    29954  0.00085408295      0.0004608           1.48 
  149000    29954  0.00085669987      0.0004608           1.49 
  150000    29954  0.00085038091      0.0004608            1.5 
  151000    29954  0.00085002796      0.0004608           1.51 
  152000    29954  0.00085354454      0.0004608           1.52 
  153000    29954  0.00086587225      0.0004608           1.53 
  154000    29954  0.00085359779      0.0004608           1.54 
  155000    29954  0.00084926061      0.0004608           1.55 
  156000    29954  0.00084823913      0.0004608           1.56 
  157000    29954  0.00085145282      0.0004608           1.57 
  158000    29954  0.00085527848      0.0004608           1.58 
  159000    29954  0.00085880947      0.0004608           1.59 
  160000    29954  0.00085649157      0.0004608            1.6 
  161000    29954  0.00085850277      0.0004608           1.61 
  162000    29954  0.00087149361      0.0004608           1.62 
  163000    29954  0.00087013363      0.0004608           1.63 
  164000    29954  0.00086865774      0.0004608           1.64 
  165000    29954  0.00086939888      0.0004608           1.65 
  166000    29954   0.0008753371      0.0004608           1.66 
  167000    29954   0.0008673788      0.0004608           1.67 
  168000    29954   0.0008617488      0.0004608           1.68 
  169000    29954  0.00085724343      0.0004608           1.69 
  170000    29954  0.00085212767      0.0004608            1.7 
  171000    29954  0.00085407314      0.0004608           1.71 
  172000    29954  0.00086145396      0.0004608           1.72 
  173000    29954  0.00086069986      0.0004608           1.73 
  174000    29954  0.00086128004      0.0004608           1.74 
  175000    29954  0.00086253872      0.0004608           1.75 
  176000    29954  0.00086818218      0.0004608           1.76 
  177000    29954  0.00087154327      0.0004608           1.77 
  178000    29954  0.00086837421      0.0004608           1.78 
  179000    29954  0.00086887034      0.0004608           1.79 
  180000    29954  0.00085926853      0.0004608            1.8 
  181000    29954  0.00085433093      0.0004608           1.81 
  182000    29954   0.0008572396      0.0004608           1.82 
  183000    29954  0.00085774549      0.0004608           1.83 
  184000    29954  0.00087399703      0.0004608           1.84 
  185000    29954  0.00087169755      0.0004608           1.85 
  186000    29954  0.00085549199      0.0004608           1.86 
  187000    29954  0.00085835392      0.0004608           1.87 
  188000    29954    0.000863094      0.0004608           1.88 
  189000    29954  0.00087455585      0.0004608           1.89 
  190000    29954  0.00085917014      0.0004608            1.9 
  191000    29954  0.00086677108      0.0004608           1.91 
  192000    29954  0.00086816417      0.0004608           1.92 
  193000    29954   0.0008565107      0.0004608           1.93 
  194000    29954  0.00086830194      0.0004608           1.94 
  195000    29954  0.00086892814      0.0004608           1.95 
  196000    29954  0.00086622168      0.0004608           1.96 
  197000    29954  0.00086523842      0.0004608           1.97 
  198000    29954   0.0008678884      0.0004608           1.98 
  199000    29954  0.00087009463      0.0004608           1.99 
  200000    29954   0.0008572143      0.0004608              2 
  201000    29954  0.00085574226      0.0004608           2.01 
  202000    29954  0.00084822977      0.0004608           2.02 
  203000    29954  0.00085172857      0.0004608           2.03 
  204000    29954   0.0008558917      0.0004608           2.04 
  205000    29954  0.00085089918      0.0004608           2.05 
  206000    29954  0.00084511385      0.0004608           2.06 
  207000    29954  0.00084722449      0.0004608           2.07 
  208000    29954  0.00084384536      0.0004608           2.08 
  209000    29954  0.00084557168      0.0004608           2.09 
  210000    29954  0.00085003977      0.0004608            2.1 
  211000    29954  0.00085203333      0.0004608           2.11 
  212000    29954   0.0008537482      0.0004608           2.12 
  213000    29954  0.00085664795      0.0004608           2.13 
  214000    29954  0.00086630219      0.0004608           2.14 
  215000    29954     0.00085809      0.0004608           2.15 
  216000    29954  0.00085062494      0.0004608           2.16 
  217000    29954  0.00085609256      0.0004608           2.17 
  218000    29954  0.00086330204      0.0004608           2.18 
  219000    29954  0.00085489987      0.0004608           2.19 
  220000    29954  0.00085673719      0.0004608            2.2 
  221000    29954  0.00084291529      0.0004608           2.21 
  222000    29954  0.00083985338      0.0004608           2.22 
  223000    29954  0.00083298771      0.0004608           2.23 
  224000    29954  0.00084117808      0.0004608           2.24 
  225000    29954  0.00084192414      0.0004608           2.25 
  226000    29954  0.00084387393      0.0004608           2.26 
  227000    29954  0.00085356034      0.0004608           2.27 
  228000    29954  0.00084308223      0.0004608           2.28 
  229000    29954  0.00085163038      0.0004608           2.29 
  230000    29954  0.00085600399      0.0004608            2.3 
  231000    29954  0.00086081932      0.0004608           2.31 
  232000    29954  0.00085936758      0.0004608           2.32 
  233000    29954  0.00085979725      0.0004608           2.33 
  233333    29954  0.00085662022      0.0004608        2.33333 
Loop time of 4398.61 on 1 procs for 233333 steps with 29954 atoms, finish time Mon Dec  6 10:43:15 2021

timestep 3.3333333332904896e-06
run 1 post no
Setting up run at Mon Dec  6 10:43:15 2021

Memory usage per processor = 40.6476 Mbytes
    Step    Atoms         KinEng         Volume           Time 
  233333    29954  0.00085662022      0.0004608        2.33333 
  233334    29954  0.00085656309      0.0004608      2.3333333 
Loop time of 0.0142294 on 1 procs for 1 steps with 29954 atoms, finish time Mon Dec  6 10:43:15 2021

timestep 1e-05
run 833.0 post no
Setting up run at Mon Dec  6 10:43:15 2021

Memory usage per processor = 40.6476 Mbytes
    Step    Atoms         KinEng         Volume           Time 
  233334    29954  0.00085656309      0.0004608      2.3333333 
  234000    29954  0.00085572578      0.0004608      2.3399933 
  234167    29954   0.0008560784      0.0004608      2.3416633 
Loop time of 12.7432 on 1 procs for 833 steps with 29954 atoms, finish time Mon Dec  6 10:43:28 2021

timestep 3.333333333303046e-06
run 1 post no
Setting up run at Mon Dec  6 10:43:28 2021

Memory usage per processor = 40.6476 Mbytes
    Step    Atoms         KinEng         Volume           Time 
  234167    29954   0.0008560784      0.0004608      2.3416633 
  234168    29954  0.00085602902      0.0004608      2.3416667 
Loop time of 0.0141828 on 1 procs for 1 steps with 29954 atoms, finish time Mon Dec  6 10:43:28 2021

timestep 1e-05
run 833.0 post no
Setting up run at Mon Dec  6 10:43:28 2021

Memory usage per processor = 40.6476 Mbytes
    Step    Atoms         KinEng         Volume           Time 
  234168    29954  0.00085602902      0.0004608      2.3416667 
  235000    29954  0.00085413383      0.0004608      2.3499867 
  235001    29954  0.00085413028      0.0004608      2.3499967 
Loop time of 12.9184 on 1 procs for 833 steps with 29954 atoms, finish time Mon Dec  6 10:43:41 2021

timestep 3.333333333303046e-06
run 1 post no
Setting up run at Mon Dec  6 10:43:41 2021

Memory usage per processor = 40.6476 Mbytes
    Step    Atoms         KinEng         Volume           Time 
  235001    29954  0.00085413028      0.0004608      2.3499967 
  235002    29954  0.00085407765      0.0004608           2.35 
Loop time of 0.0142745 on 1 procs for 1 steps with 29954 atoms, finish time Mon Dec  6 10:43:41 2021

timestep 1e-05
run 833.0 post no
Setting up run at Mon Dec  6 10:43:41 2021

Memory usage per processor = 40.6476 Mbytes
    Step    Atoms         KinEng         Volume           Time 
  235002    29954  0.00085407765      0.0004608           2.35 
  235835    29954  0.00085403758      0.0004608        2.35833 
Loop time of 12.8857 on 1 procs for 833 steps with 29954 atoms, finish time Mon Dec  6 10:43:54 2021

timestep 3.333333333303046e-06
run 1 post no
Setting up run at Mon Dec  6 10:43:54 2021

Memory usage per processor = 40.6476 Mbytes
    Step    Atoms         KinEng         Volume           Time 
  235835    29954  0.00085403758      0.0004608        2.35833 
  235836    29954  0.00085399653      0.0004608      2.3583333 
Loop time of 0.0141255 on 1 procs for 1 steps with 29954 atoms, finish time Mon Dec  6 10:43:55 2021

timestep 1e-05
run 833.0 post no
Setting up run at Mon Dec  6 10:43:55 2021

Memory usage per processor = 40.6476 Mbytes
    Step    Atoms         KinEng         Volume           Time 
  235836    29954  0.00085399653      0.0004608      2.3583333 
  236000    29954  0.00085514127      0.0004608      2.3599733 
  236669    29954  0.00086226039      0.0004608      2.3666633 
Loop time of 13.5227 on 1 procs for 833 steps with 29954 atoms, finish time Mon Dec  6 10:44:08 2021

timestep 3.333333333303046e-06
run 1 post no
Setting up run at Mon Dec  6 10:44:08 2021

Memory usage per processor = 40.6476 Mbytes
    Step    Atoms         KinEng         Volume           Time 
  236669    29954  0.00086226039      0.0004608      2.3666633 
  236670    29954  0.00086220711      0.0004608      2.3666667 
Loop time of 0.01533 on 1 procs for 1 steps with 29954 atoms, finish time Mon Dec  6 10:44:08 2021

timestep 1e-05
run 833.0 post no
Setting up run at Mon Dec  6 10:44:08 2021

Memory usage per processor = 40.6476 Mbytes
    Step    Atoms         KinEng         Volume           Time 
  236670    29954  0.00086220711      0.0004608      2.3666667 
  237000    29954  0.00086090754      0.0004608      2.3699667 
  237503    29954  0.00085793464      0.0004608      2.3749967 
Loop time of 13.8921 on 1 procs for 833 steps with 29954 atoms, finish time Mon Dec  6 10:44:22 2021

timestep 3.333333333303046e-06
run 1 post no
Setting up run at Mon Dec  6 10:44:22 2021

Memory usage per processor = 40.6476 Mbytes
    Step    Atoms         KinEng         Volume           Time 
  237503    29954  0.00085793464      0.0004608      2.3749967 
  237504    29954  0.00085788332      0.0004608          2.375 
Loop time of 0.0141908 on 1 procs for 1 steps with 29954 atoms, finish time Mon Dec  6 10:44:23 2021

timestep 1e-05
run 833.0 post no
Setting up run at Mon Dec  6 10:44:23 2021

Memory usage per processor = 40.6476 Mbytes
    Step    Atoms         KinEng         Volume           Time 
  237504    29954  0.00085788332      0.0004608          2.375 
  238000    29954  0.00085412937      0.0004608        2.37996 
  238337    29954  0.00085443332      0.0004608        2.38333 
Loop time of 13.2535 on 1 procs for 833 steps with 29954 atoms, finish time Mon Dec  6 10:44:36 2021

timestep 3.333333333303046e-06
run 1 post no
Setting up run at Mon Dec  6 10:44:36 2021

Memory usage per processor = 40.6476 Mbytes
    Step    Atoms         KinEng         Volume           Time 
  238337    29954  0.00085443332      0.0004608        2.38333 
  238338    29954  0.00085438204      0.0004608      2.3833333 
Loop time of 0.0141475 on 1 procs for 1 steps with 29954 atoms, finish time Mon Dec  6 10:44:36 2021

timestep 1e-05
run 833.0 post no
Setting up run at Mon Dec  6 10:44:36 2021

Memory usage per processor = 40.6476 Mbytes
    Step    Atoms         KinEng         Volume           Time 
  238338    29954  0.00085438204      0.0004608      2.3833333 
  239000    29954  0.00084497623      0.0004608      2.3899533 
  239171    29954  0.00084559486      0.0004608      2.3916633 
Loop time of 13.3103 on 1 procs for 833 steps with 29954 atoms, finish time Mon Dec  6 10:44:50 2021

timestep 3.333333333303046e-06
run 1 post no
Setting up run at Mon Dec  6 10:44:50 2021

Memory usage per processor = 40.6476 Mbytes
    Step    Atoms         KinEng         Volume           Time 
  239171    29954  0.00084559486      0.0004608      2.3916633 
  239172    29954  0.00084555545      0.0004608      2.3916667 
Loop time of 0.0141439 on 1 procs for 1 steps with 29954 atoms, finish time Mon Dec  6 10:44:50 2021

timestep 1e-05
run 833.0 post no
Setting up run at Mon Dec  6 10:44:50 2021

Memory usage per processor = 40.6476 Mbytes
    Step    Atoms         KinEng         Volume           Time 
  239172    29954  0.00084555545      0.0004608      2.3916667 
  240000    29954  0.00085579557      0.0004608      2.3999467 
  240005    29954  0.00085583368      0.0004608      2.3999967 
Loop time of 14.0883 on 1 procs for 833 steps with 29954 atoms, finish time Mon Dec  6 10:45:04 2021

timestep 3.333333333303046e-06
run 1 post no
Setting up run at Mon Dec  6 10:45:04 2021

Memory usage per processor = 40.6476 Mbytes
    Step    Atoms         KinEng         Volume           Time 
  240005    29954  0.00085583368      0.0004608      2.3999967 
  240006    29954   0.0008557899      0.0004608            2.4 
Loop time of 0.0153508 on 1 procs for 1 steps with 29954 atoms, finish time Mon Dec  6 10:45:04 2021

timestep 1e-05
run 833.0 post no
Setting up run at Mon Dec  6 10:45:04 2021

Memory usage per processor = 40.6476 Mbytes
    Step    Atoms         KinEng         Volume           Time 
  240006    29954   0.0008557899      0.0004608            2.4 
  240839    29954    0.000860309      0.0004608        2.40833 
Loop time of 14.023 on 1 procs for 833 steps with 29954 atoms, finish time Mon Dec  6 10:45:18 2021

timestep 3.333333333303046e-06
run 1 post no
Setting up run at Mon Dec  6 10:45:18 2021

Memory usage per processor = 40.6476 Mbytes
    Step    Atoms         KinEng         Volume           Time 
  240839    29954    0.000860309      0.0004608        2.40833 
  240840    29954   0.0008602515      0.0004608      2.4083333 
Loop time of 0.015699 on 1 procs for 1 steps with 29954 atoms, finish time Mon Dec  6 10:45:19 2021

timestep 1e-05
run 833.0 post no
Setting up run at Mon Dec  6 10:45:19 2021

Memory usage per processor = 40.6476 Mbytes
    Step    Atoms         KinEng         Volume           Time 
  240840    29954   0.0008602515      0.0004608      2.4083333 
  241000    29954  0.00085629296      0.0004608      2.4099333 
  241673    29954   0.0008617687      0.0004608      2.4166633 
Loop time of 13.9827 on 1 procs for 833 steps with 29954 atoms, finish time Mon Dec  6 10:45:33 2021

timestep 3.333333333303046e-06
run 1 post no
Setting up run at Mon Dec  6 10:45:33 2021

Memory usage per processor = 40.6476 Mbytes
    Step    Atoms         KinEng         Volume           Time 
  241673    29954   0.0008617687      0.0004608      2.4166633 
  241674    29954  0.00086172034      0.0004608      2.4166667 
Loop time of 0.0142332 on 1 procs for 1 steps with 29954 atoms, finish time Mon Dec  6 10:45:33 2021

timestep 1e-05
run 833.0 post no
Setting up run at Mon Dec  6 10:45:33 2021

Memory usage per processor = 40.6476 Mbytes
    Step    Atoms         KinEng         Volume           Time 
  241674    29954  0.00086172034      0.0004608      2.4166667 
  242000    29954  0.00085972755      0.0004608      2.4199267 
  242507    29954  0.00086202184      0.0004608      2.4249967 
Loop time of 13.8316 on 1 procs for 833 steps with 29954 atoms, finish time Mon Dec  6 10:45:47 2021

timestep 3.333333333303046e-06
run 1 post no
Setting up run at Mon Dec  6 10:45:47 2021

Memory usage per processor = 40.6476 Mbytes
    Step    Atoms         KinEng         Volume           Time 
  242507    29954  0.00086202184      0.0004608      2.4249967 
  242508    29954  0.00086198288      0.0004608          2.425 
Loop time of 0.0143447 on 1 procs for 1 steps with 29954 atoms, finish time Mon Dec  6 10:45:47 2021

timestep 1e-05
run 833.0 post no
Setting up run at Mon Dec  6 10:45:47 2021

Memory usage per processor = 40.6476 Mbytes
    Step    Atoms         KinEng         Volume           Time 
  242508    29954  0.00086198288      0.0004608          2.425 
  243000    29954  0.00086567757      0.0004608        2.42992 
  243341    29954  0.00085730736      0.0004608        2.43333 
Loop time of 14.3366 on 1 procs for 833 steps with 29954 atoms, finish time Mon Dec  6 10:46:02 2021

timestep 3.333333333303046e-06
run 1 post no
Setting up run at Mon Dec  6 10:46:02 2021

Memory usage per processor = 40.6476 Mbytes
    Step    Atoms         KinEng         Volume           Time 
  243341    29954  0.00085730736      0.0004608        2.43333 
  243342    29954  0.00085724897      0.0004608      2.4333333 
Loop time of 0.0143399 on 1 procs for 1 steps with 29954 atoms, finish time Mon Dec  6 10:46:02 2021

timestep 1e-05
run 833.0 post no
Setting up run at Mon Dec  6 10:46:02 2021

Memory usage per processor = 40.6476 Mbytes
    Step    Atoms         KinEng         Volume           Time 
  243342    29954  0.00085724897      0.0004608      2.4333333 
  244000    29954  0.00084945273      0.0004608      2.4399133 
  244175    29954  0.00085331347      0.0004608      2.4416633 
Loop time of 14.0983 on 1 procs for 833 steps with 29954 atoms, finish time Mon Dec  6 10:46:16 2021

timestep 3.333333333303046e-06
run 1 post no
Setting up run at Mon Dec  6 10:46:16 2021

Memory usage per processor = 40.6476 Mbytes
    Step    Atoms         KinEng         Volume           Time 
  244175    29954  0.00085331347      0.0004608      2.4416633 
  244176    29954   0.0008532753      0.0004608      2.4416667 
Loop time of 0.0143425 on 1 procs for 1 steps with 29954 atoms, finish time Mon Dec  6 10:46:16 2021

timestep 1e-05
run 833.0 post no
Setting up run at Mon Dec  6 10:46:16 2021

Memory usage per processor = 40.6476 Mbytes
    Step    Atoms         KinEng         Volume           Time 
  244176    29954   0.0008532753      0.0004608      2.4416667 
  245000    29954  0.00086420921      0.0004608      2.4499067 
  245009    29954  0.00086405854      0.0004608      2.4499967 
Loop time of 14.2387 on 1 procs for 833 steps with 29954 atoms, finish time Mon Dec  6 10:46:31 2021

timestep 3.333333333303046e-06
run 1 post no
Setting up run at Mon Dec  6 10:46:31 2021

Memory usage per processor = 40.6476 Mbytes
    Step    Atoms         KinEng         Volume           Time 
  245009    29954  0.00086405854      0.0004608      2.4499967 
  245010    29954  0.00086400434      0.0004608           2.45 
Loop time of 0.014367 on 1 procs for 1 steps with 29954 atoms, finish time Mon Dec  6 10:46:31 2021

timestep 1e-05
run 833.0 post no
Setting up run at Mon Dec  6 10:46:31 2021

Memory usage per processor = 40.6476 Mbytes
    Step    Atoms         KinEng         Volume           Time 
  245010    29954  0.00086400434      0.0004608           2.45 
  245843    29954  0.00086398572      0.0004608        2.45833 
Loop time of 14.8137 on 1 procs for 833 steps with 29954 atoms, finish time Mon Dec  6 10:46:46 2021

timestep 3.333333333303046e-06
run 1 post no
Setting up run at Mon Dec  6 10:46:46 2021

Memory usage per processor = 40.6476 Mbytes
    Step    Atoms         KinEng         Volume           Time 
  245843    29954  0.00086398572      0.0004608        2.45833 
  245844    29954  0.00086394347      0.0004608      2.4583333 
Loop time of 0.0157729 on 1 procs for 1 steps with 29954 atoms, finish time Mon Dec  6 10:46:46 2021

timestep 1e-05
run 833.0 post no
Setting up run at Mon Dec  6 10:46:46 2021

Memory usage per processor = 40.6476 Mbytes
    Step    Atoms         KinEng         Volume           Time 
  245844    29954  0.00086394347      0.0004608      2.4583333 
  246000    29954  0.00086378016      0.0004608      2.4598933 
  246677    29954  0.00086795685      0.0004608      2.4666633 
Loop time of 15.4963 on 1 procs for 833 steps with 29954 atoms, finish time Mon Dec  6 10:47:02 2021

timestep 3.333333333303046e-06
run 1 post no
Setting up run at Mon Dec  6 10:47:02 2021

Memory usage per processor = 40.6476 Mbytes
    Step    Atoms         KinEng         Volume           Time 
  246677    29954  0.00086795685      0.0004608      2.4666633 
  246678    29954  0.00086792959      0.0004608      2.4666667 
Loop time of 0.0159704 on 1 procs for 1 steps with 29954 atoms, finish time Mon Dec  6 10:47:02 2021

timestep 1e-05
run 833.0 post no
Setting up run at Mon Dec  6 10:47:02 2021

Memory usage per processor = 40.6476 Mbytes
    Step    Atoms         KinEng         Volume           Time 
  246678    29954  0.00086792959      0.0004608      2.4666667 
  247000    29954  0.00086874657      0.0004608      2.4698867 
  247511    29954  0.00086331482      0.0004608      2.4749967 
Loop time of 15.0213 on 1 procs for 833 steps with 29954 atoms, finish time Mon Dec  6 10:47:17 2021

timestep 3.333333333303046e-06
run 1 post no
Setting up run at Mon Dec  6 10:47:17 2021

Memory usage per processor = 40.6476 Mbytes
    Step    Atoms         KinEng         Volume           Time 
  247511    29954  0.00086331482      0.0004608      2.4749967 
  247512    29954  0.00086326191      0.0004608          2.475 
Loop time of 0.0142712 on 1 procs for 1 steps with 29954 atoms, finish time Mon Dec  6 10:47:18 2021

timestep 1e-05
run 833.0 post no
Setting up run at Mon Dec  6 10:47:18 2021

Memory usage per processor = 40.6476 Mbytes
    Step    Atoms         KinEng         Volume           Time 
  247512    29954  0.00086326191      0.0004608          2.475 
  248000    29954  0.00085615446      0.0004608        2.47988 
  248345    29954  0.00085202304      0.0004608        2.48333 
Loop time of 14.6529 on 1 procs for 833 steps with 29954 atoms, finish time Mon Dec  6 10:47:32 2021

timestep 3.333333333303046e-06
run 1 post no
Setting up run at Mon Dec  6 10:47:32 2021

Memory usage per processor = 40.6476 Mbytes
    Step    Atoms         KinEng         Volume           Time 
  248345    29954  0.00085202304      0.0004608        2.48333 
  248346    29954  0.00085195898      0.0004608      2.4833333 
Loop time of 0.0151825 on 1 procs for 1 steps with 29954 atoms, finish time Mon Dec  6 10:47:33 2021

timestep 1e-05
run 833.0 post no
Setting up run at Mon Dec  6 10:47:33 2021

Memory usage per processor = 40.6476 Mbytes
    Step    Atoms         KinEng         Volume           Time 
  248346    29954  0.00085195898      0.0004608      2.4833333 
  249000    29954  0.00085387229      0.0004608      2.4898733 
  249179    29954  0.00085431184      0.0004608      2.4916633 
Loop time of 15.1851 on 1 procs for 833 steps with 29954 atoms, finish time Mon Dec  6 10:47:48 2021

timestep 3.333333333303046e-06
run 1 post no
Setting up run at Mon Dec  6 10:47:48 2021

Memory usage per processor = 40.6476 Mbytes
    Step    Atoms         KinEng         Volume           Time 
  249179    29954  0.00085431184      0.0004608      2.4916633 
  249180    29954  0.00085426292      0.0004608      2.4916667 
Loop time of 0.0161745 on 1 procs for 1 steps with 29954 atoms, finish time Mon Dec  6 10:47:48 2021

timestep 1e-05
run 833.0 post no
Setting up run at Mon Dec  6 10:47:48 2021

Memory usage per processor = 40.6476 Mbytes
    Step    Atoms         KinEng         Volume           Time 
  249180    29954  0.00085426292      0.0004608      2.4916667 
  250000    29954  0.00085762361      0.0004608      2.4998667 
  250013    29954  0.00085776755      0.0004608      2.4999967 
Loop time of 15.2152 on 1 procs for 833 steps with 29954 atoms, finish time Mon Dec  6 10:48:04 2021

timestep 3.333333333303046e-06
run 1 post no
Setting up run at Mon Dec  6 10:48:04 2021

Memory usage per processor = 40.6476 Mbytes
    Step    Atoms         KinEng         Volume           Time 
  250013    29954  0.00085776755      0.0004608      2.4999967 
  250014    29954  0.00085772202      0.0004608            2.5 
Loop time of 0.0154177 on 1 procs for 1 steps with 29954 atoms, finish time Mon Dec  6 10:48:04 2021

timestep 1e-05
run 833.0 post no
Setting up run at Mon Dec  6 10:48:04 2021

Memory usage per processor = 40.6476 Mbytes
    Step    Atoms         KinEng         Volume           Time 
  250014    29954  0.00085772202      0.0004608            2.5 
  250847    29954  0.00086576159      0.0004608        2.50833 
Loop time of 15.4552 on 1 procs for 833 steps with 29954 atoms, finish time Mon Dec  6 10:48:20 2021

timestep 3.333333333303046e-06
run 1 post no
Setting up run at Mon Dec  6 10:48:20 2021

Memory usage per processor = 40.6476 Mbytes
    Step    Atoms         KinEng         Volume           Time 
  250847    29954  0.00086576159      0.0004608        2.50833 
  250848    29954  0.00086570412      0.0004608      2.5083333 
Loop time of 0.0169007 on 1 procs for 1 steps with 29954 atoms, finish time Mon Dec  6 10:48:20 2021

timestep 1e-05
run 833.0 post no
Setting up run at Mon Dec  6 10:48:20 2021

Memory usage per processor = 40.6476 Mbytes
    Step    Atoms         KinEng         Volume           Time 
  250848    29954  0.00086570412      0.0004608      2.5083333 
  251000    29954  0.00086424677      0.0004608      2.5098533 
  251681    29954  0.00085722529      0.0004608      2.5166633 
Loop time of 15.2954 on 1 procs for 833 steps with 29954 atoms, finish time Mon Dec  6 10:48:35 2021

timestep 3.333333333303046e-06
run 1 post no
Setting up run at Mon Dec  6 10:48:35 2021

Memory usage per processor = 40.6476 Mbytes
    Step    Atoms         KinEng         Volume           Time 
  251681    29954  0.00085722529      0.0004608      2.5166633 
  251682    29954  0.00085717652      0.0004608      2.5166667 
Loop time of 0.0157083 on 1 procs for 1 steps with 29954 atoms, finish time Mon Dec  6 10:48:35 2021

timestep 1e-05
run 833.0 post no
Setting up run at Mon Dec  6 10:48:36 2021

Memory usage per processor = 40.6476 Mbytes
    Step    Atoms         KinEng         Volume           Time 
  251682    29954  0.00085717652      0.0004608      2.5166667 
  252000    29954   0.0008566289      0.0004608      2.5198467 
  252515    29954  0.00086412168      0.0004608      2.5249967 
Loop time of 15.2888 on 1 procs for 833 steps with 29954 atoms, finish time Mon Dec  6 10:48:51 2021

timestep 3.333333333303046e-06
run 1 post no
Setting up run at Mon Dec  6 10:48:51 2021

Memory usage per processor = 40.6476 Mbytes
    Step    Atoms         KinEng         Volume           Time 
  252515    29954  0.00086412168      0.0004608      2.5249967 
  252516    29954  0.00086407532      0.0004608          2.525 
Loop time of 0.015751 on 1 procs for 1 steps with 29954 atoms, finish time Mon Dec  6 10:48:51 2021

timestep 1e-05
run 833.0 post no
Setting up run at Mon Dec  6 10:48:51 2021

Memory usage per processor = 40.6476 Mbytes
    Step    Atoms         KinEng         Volume           Time 
  252516    29954  0.00086407532      0.0004608          2.525 
  253000    29954  0.00086574282      0.0004608        2.52984 
  253349    29954  0.00086436611      0.0004608        2.53333 
Loop time of 15.438 on 1 procs for 833 steps with 29954 atoms, finish time Mon Dec  6 10:49:07 2021

timestep 3.333333333303046e-06
run 1 post no
Setting up run at Mon Dec  6 10:49:07 2021

Memory usage per processor = 40.6476 Mbytes
    Step    Atoms         KinEng         Volume           Time 
  253349    29954  0.00086436611      0.0004608        2.53333 
  253350    29954  0.00086430474      0.0004608      2.5333333 
Loop time of 0.015287 on 1 procs for 1 steps with 29954 atoms, finish time Mon Dec  6 10:49:07 2021

timestep 1e-05
run 833.0 post no
Setting up run at Mon Dec  6 10:49:07 2021

Memory usage per processor = 40.6476 Mbytes
    Step    Atoms         KinEng         Volume           Time 
  253350    29954  0.00086430474      0.0004608      2.5333333 
  254000    29954  0.00085899845      0.0004608      2.5398333 
  254183    29954  0.00085849088      0.0004608      2.5416633 
Loop time of 15.5953 on 1 procs for 833 steps with 29954 atoms, finish time Mon Dec  6 10:49:23 2021

timestep 3.333333333303046e-06
run 1 post no
Setting up run at Mon Dec  6 10:49:23 2021

Memory usage per processor = 40.6476 Mbytes
    Step    Atoms         KinEng         Volume           Time 
  254183    29954  0.00085849088      0.0004608      2.5416633 
  254184    29954  0.00085843909      0.0004608      2.5416667 
Loop time of 0.0157705 on 1 procs for 1 steps with 29954 atoms, finish time Mon Dec  6 10:49:23 2021

timestep 1e-05
run 833.0 post no
Setting up run at Mon Dec  6 10:49:23 2021

Memory usage per processor = 40.6476 Mbytes
    Step    Atoms         KinEng         Volume           Time 
  254184    29954  0.00085843909      0.0004608      2.5416667 
  255000    29954  0.00085626442      0.0004608      2.5498267 
  255017    29954  0.00085642938      0.0004608      2.5499967 
Loop time of 15.6318 on 1 procs for 833 steps with 29954 atoms, finish time Mon Dec  6 10:49:39 2021

timestep 3.333333333303046e-06
run 1 post no
Setting up run at Mon Dec  6 10:49:39 2021

Memory usage per processor = 40.6476 Mbytes
    Step    Atoms         KinEng         Volume           Time 
  255017    29954  0.00085642938      0.0004608      2.5499967 
  255018    29954  0.00085637863      0.0004608           2.55 
Loop time of 0.0167829 on 1 procs for 1 steps with 29954 atoms, finish time Mon Dec  6 10:49:39 2021

timestep 1e-05
run 833.0 post no
Setting up run at Mon Dec  6 10:49:39 2021

Memory usage per processor = 40.6476 Mbytes
    Step    Atoms         KinEng         Volume           Time 
  255018    29954  0.00085637863      0.0004608           2.55 
  255851    29954  0.00085969276      0.0004608        2.55833 
Loop time of 15.3552 on 1 procs for 833 steps with 29954 atoms, finish time Mon Dec  6 10:49:55 2021

timestep 3.333333333303046e-06
run 1 post no
Setting up run at Mon Dec  6 10:49:55 2021

Memory usage per processor = 40.6476 Mbytes
    Step    Atoms         KinEng         Volume           Time 
  255851    29954  0.00085969276      0.0004608        2.55833 
  255852    29954  0.00085965631      0.0004608      2.5583333 
Loop time of 0.0156111 on 1 procs for 1 steps with 29954 atoms, finish time Mon Dec  6 10:49:55 2021

timestep 1e-05
run 833.0 post no
Setting up run at Mon Dec  6 10:49:55 2021

Memory usage per processor = 40.6476 Mbytes
    Step    Atoms         KinEng         Volume           Time 
  255852    29954  0.00085965631      0.0004608      2.5583333 
  256000    29954  0.00086203398      0.0004608      2.5598133 
  256685    29954  0.00085367789      0.0004608      2.5666633 
Loop time of 15.4711 on 1 procs for 833 steps with 29954 atoms, finish time Mon Dec  6 10:50:11 2021

timestep 3.333333333303046e-06
run 1 post no
Setting up run at Mon Dec  6 10:50:11 2021

Memory usage per processor = 40.6476 Mbytes
    Step    Atoms         KinEng         Volume           Time 
  256685    29954  0.00085367789      0.0004608      2.5666633 
  256686    29954  0.00085361749      0.0004608      2.5666667 
Loop time of 0.0158032 on 1 procs for 1 steps with 29954 atoms, finish time Mon Dec  6 10:50:11 2021

timestep 1e-05
run 833.0 post no
Setting up run at Mon Dec  6 10:50:11 2021

Memory usage per processor = 40.6476 Mbytes
    Step    Atoms         KinEng         Volume           Time 
  256686    29954  0.00085361749      0.0004608      2.5666667 
  257000    29954  0.00084839172      0.0004608      2.5698067 
  257519    29954  0.00084562207      0.0004608      2.5749967 
Loop time of 15.0874 on 1 procs for 833 steps with 29954 atoms, finish time Mon Dec  6 10:50:26 2021

timestep 3.333333333303046e-06
run 1 post no
Setting up run at Mon Dec  6 10:50:26 2021

Memory usage per processor = 40.6476 Mbytes
    Step    Atoms         KinEng         Volume           Time 
  257519    29954  0.00084562207      0.0004608      2.5749967 
  257520    29954  0.00084557886      0.0004608          2.575 
Loop time of 0.0153197 on 1 procs for 1 steps with 29954 atoms, finish time Mon Dec  6 10:50:26 2021

timestep 1e-05
run 833.0 post no
Setting up run at Mon Dec  6 10:50:26 2021

Memory usage per processor = 40.6476 Mbytes
    Step    Atoms         KinEng         Volume           Time 
  257520    29954  0.00084557886      0.0004608          2.575 
  258000    29954  0.00084916028      0.0004608         2.5798 
  258353    29954  0.00085173606      0.0004608        2.58333 
Loop time of 14.9587 on 1 procs for 833 steps with 29954 atoms, finish time Mon Dec  6 10:50:41 2021

timestep 3.333333333303046e-06
run 1 post no
Setting up run at Mon Dec  6 10:50:41 2021

Memory usage per processor = 40.6476 Mbytes
    Step    Atoms         KinEng         Volume           Time 
  258353    29954  0.00085173606      0.0004608        2.58333 
  258354    29954  0.00085168878      0.0004608      2.5833333 
Loop time of 0.0160692 on 1 procs for 1 steps with 29954 atoms, finish time Mon Dec  6 10:50:42 2021

timestep 1e-05
run 833.0 post no
Setting up run at Mon Dec  6 10:50:42 2021

Memory usage per processor = 40.6476 Mbytes
    Step    Atoms         KinEng         Volume           Time 
  258354    29954  0.00085168878      0.0004608      2.5833333 
  259000    29954  0.00085606189      0.0004608      2.5897933 
  259187    29954  0.00085598627      0.0004608      2.5916633 
Loop time of 15.0232 on 1 procs for 833 steps with 29954 atoms, finish time Mon Dec  6 10:50:57 2021

timestep 3.333333333303046e-06
run 1 post no
Setting up run at Mon Dec  6 10:50:57 2021

Memory usage per processor = 40.6476 Mbytes
    Step    Atoms         KinEng         Volume           Time 
  259187    29954  0.00085598627      0.0004608      2.5916633 
  259188    29954  0.00085592753      0.0004608      2.5916667 
Loop time of 0.01585 on 1 procs for 1 steps with 29954 atoms, finish time Mon Dec  6 10:50:57 2021

timestep 1e-05
run 833.0 post no
Setting up run at Mon Dec  6 10:50:57 2021

Memory usage per processor = 40.6476 Mbytes
    Step    Atoms         KinEng         Volume           Time 
  259188    29954  0.00085592753      0.0004608      2.5916667 
  260000    29954  0.00085636007      0.0004608      2.5997867 
  260021    29954  0.00085655126      0.0004608      2.5999967 
Loop time of 14.8448 on 1 procs for 833 steps with 29954 atoms, finish time Mon Dec  6 10:51:12 2021

timestep 3.333333333303046e-06
run 1 post no
Setting up run at Mon Dec  6 10:51:12 2021

Memory usage per processor = 40.6476 Mbytes
    Step    Atoms         KinEng         Volume           Time 
  260021    29954  0.00085655126      0.0004608      2.5999967 
  260022    29954  0.00085650637      0.0004608            2.6 
Loop time of 0.0157055 on 1 procs for 1 steps with 29954 atoms, finish time Mon Dec  6 10:51:12 2021

timestep 1e-05
run 833.0 post no
Setting up run at Mon Dec  6 10:51:12 2021

Memory usage per processor = 40.6476 Mbytes
    Step    Atoms         KinEng         Volume           Time 
  260022    29954  0.00085650637      0.0004608            2.6 
  260855    29954  0.00085991436      0.0004608        2.60833 
Loop time of 14.9214 on 1 procs for 833 steps with 29954 atoms, finish time Mon Dec  6 10:51:27 2021

timestep 3.333333333303046e-06
run 1 post no
Setting up run at Mon Dec  6 10:51:27 2021

Memory usage per processor = 40.6476 Mbytes
    Step    Atoms         KinEng         Volume           Time 
  260855    29954  0.00085991436      0.0004608        2.60833 
  260856    29954  0.00085987366      0.0004608      2.6083333 
Loop time of 0.0152976 on 1 procs for 1 steps with 29954 atoms, finish time Mon Dec  6 10:51:27 2021

timestep 1e-05
run 833.0 post no
Setting up run at Mon Dec  6 10:51:27 2021

Memory usage per processor = 40.6476 Mbytes
    Step    Atoms         KinEng         Volume           Time 
  260856    29954  0.00085987366      0.0004608      2.6083333 
  261000    29954  0.00086032097      0.0004608      2.6097733 
  261689    29954  0.00085153336      0.0004608      2.6166633 
Loop time of 14.7958 on 1 procs for 833 steps with 29954 atoms, finish time Mon Dec  6 10:51:42 2021

timestep 3.333333333303046e-06
run 1 post no
Setting up run at Mon Dec  6 10:51:42 2021

Memory usage per processor = 40.6476 Mbytes
    Step    Atoms         KinEng         Volume           Time 
  261689    29954  0.00085153336      0.0004608      2.6166633 
  261690    29954  0.00085148709      0.0004608      2.6166667 
Loop time of 0.0158947 on 1 procs for 1 steps with 29954 atoms, finish time Mon Dec  6 10:51:42 2021

timestep 1e-05
run 833.0 post no
Setting up run at Mon Dec  6 10:51:43 2021

Memory usage per processor = 40.6476 Mbytes
    Step    Atoms         KinEng         Volume           Time 
  261690    29954  0.00085148709      0.0004608      2.6166667 
  262000    29954   0.0008453759      0.0004608      2.6197667 
  262523    29954  0.00084727827      0.0004608      2.6249967 
Loop time of 14.6771 on 1 procs for 833 steps with 29954 atoms, finish time Mon Dec  6 10:51:57 2021

timestep 3.333333333303046e-06
run 1 post no
Setting up run at Mon Dec  6 10:51:57 2021

Memory usage per processor = 40.6476 Mbytes
    Step    Atoms         KinEng         Volume           Time 
  262523    29954  0.00084727827      0.0004608      2.6249967 
  262524    29954  0.00084722669      0.0004608          2.625 
Loop time of 0.0161226 on 1 procs for 1 steps with 29954 atoms, finish time Mon Dec  6 10:51:57 2021

timestep 1e-05
run 833.0 post no
Setting up run at Mon Dec  6 10:51:58 2021

Memory usage per processor = 40.6476 Mbytes
    Step    Atoms         KinEng         Volume           Time 
  262524    29954  0.00084722669      0.0004608          2.625 
  263000    29954  0.00084257756      0.0004608        2.62976 
  263357    29954   0.0008469509      0.0004608        2.63333 
Loop time of 14.81 on 1 procs for 833 steps with 29954 atoms, finish time Mon Dec  6 10:52:12 2021

timestep 3.333333333303046e-06
run 1 post no
Setting up run at Mon Dec  6 10:52:12 2021

Memory usage per processor = 40.6476 Mbytes
    Step    Atoms         KinEng         Volume           Time 
  263357    29954   0.0008469509      0.0004608        2.63333 
  263358    29954  0.00084691504      0.0004608      2.6333333 
Loop time of 0.0156366 on 1 procs for 1 steps with 29954 atoms, finish time Mon Dec  6 10:52:13 2021

timestep 1e-05
run 833.0 post no
Setting up run at Mon Dec  6 10:52:13 2021

Memory usage per processor = 40.6476 Mbytes
    Step    Atoms         KinEng         Volume           Time 
  263358    29954  0.00084691504      0.0004608      2.6333333 
  264000    29954  0.00085336655      0.0004608      2.6397533 
  264191    29954  0.00085558062      0.0004608      2.6416633 
Loop time of 14.3261 on 1 procs for 833 steps with 29954 atoms, finish time Mon Dec  6 10:52:27 2021

timestep 3.333333333303046e-06
run 1 post no
Setting up run at Mon Dec  6 10:52:27 2021

Memory usage per processor = 40.6476 Mbytes
    Step    Atoms         KinEng         Volume           Time 
  264191    29954  0.00085558062      0.0004608      2.6416633 
  264192    29954  0.00085553366      0.0004608      2.6416667 
Loop time of 0.0161523 on 1 procs for 1 steps with 29954 atoms, finish time Mon Dec  6 10:52:27 2021

timestep 1e-05
run 833.0 post no
Setting up run at Mon Dec  6 10:52:27 2021

Memory usage per processor = 40.6476 Mbytes
    Step    Atoms         KinEng         Volume           Time 
  264192    29954  0.00085553366      0.0004608      2.6416667 
  265000    29954  0.00084999698      0.0004608      2.6497467 
  265025    29954  0.00085014778      0.0004608      2.6499967 
Loop time of 14.37 on 1 procs for 833 steps with 29954 atoms, finish time Mon Dec  6 10:52:42 2021

timestep 3.333333333303046e-06
run 1 post no
Setting up run at Mon Dec  6 10:52:42 2021

Memory usage per processor = 40.6476 Mbytes
    Step    Atoms         KinEng         Volume           Time 
  265025    29954  0.00085014778      0.0004608      2.6499967 
  265026    29954  0.00085010531      0.0004608           2.65 
Loop time of 0.015601 on 1 procs for 1 steps with 29954 atoms, finish time Mon Dec  6 10:52:42 2021

timestep 1e-05
run 833.0 post no
Setting up run at Mon Dec  6 10:52:42 2021

Memory usage per processor = 40.6476 Mbytes
    Step    Atoms         KinEng         Volume           Time 
  265026    29954  0.00085010531      0.0004608           2.65 
  265859    29954  0.00085318052      0.0004608        2.65833 
Loop time of 14.1824 on 1 procs for 833 steps with 29954 atoms, finish time Mon Dec  6 10:52:56 2021

timestep 3.333333333303046e-06
run 1 post no
Setting up run at Mon Dec  6 10:52:56 2021

Memory usage per processor = 40.6476 Mbytes
    Step    Atoms         KinEng         Volume           Time 
  265859    29954  0.00085318052      0.0004608        2.65833 
  265860    29954  0.00085312543      0.0004608      2.6583333 
Loop time of 0.0156854 on 1 procs for 1 steps with 29954 atoms, finish time Mon Dec  6 10:52:56 2021

timestep 1e-05
