#
# Simulating microcrystalline cellulose (MCC) particles; see the `psd_fractions.py` for
# the particle size distribution, as measured with a Canty Solidsizer.


# Simulation constants
variable timestep       equal 1e-5
variable rotationPeriod equal 60/45         # s per revolution
variable N equal 30000.0
variable NRate          equal ${N}/0.1      # Particle insertion rate
variable NRate          equal 30000/0.1      


variable youngmodP      equal 5e6
variable poissP         equal 0.3

variable fricPP equal 0.4
variable fricPW equal 0.4
variable fricPSW equal 0.4
variable fric           equal 0.5           # Dummy value, Wall-Sidewall

variable fricRollPP equal 0.1
variable fricRollPW equal 0.1
variable fricRollPSW equal 0.1
variable fricRoll       equal 0.5           # Dummy value, Wall-Sidewall

variable corPP          equal 0.3           # Optimise
variable corPW          equal 0.3           # Optimise
variable corPSW         equal 0.3           # Optimise
variable cor            equal 0.3           # Dummy value, Wall-Sidewall

variable cohPP          equal 0             # Optimise
variable cohPW          equal 0             # Optimise
variable cohPSW         equal 0             # Optimise
variable coh            equal 0             # Dummy value, Wall-Sidewall

variable dens           equal 1580.0


# Particle Size Distribution
variable r0 equal 1050e-6/2
variable r1 equal 1100e-6/2
variable r2 equal 1150e-6/2
variable r3 equal 1200e-6/2
variable r4 equal 1250e-6/2
variable r5 equal 1300e-6/2
variable r6 equal 1350e-6/2
variable r7 equal 1400e-6/2
variable r8 equal 1450e-6/2
variable r9 equal 1500e-6/2


variable p0 equal 0.0064659
variable p1 equal 0.07387693
variable p2 equal 0.26249571
variable p3 equal 0.25249525
variable p4 equal 0.17012964
variable p5 equal 0.10530736
variable p6 equal 0.06885834
variable p7 equal 0.03662696
variable p8 equal 0.01861549
variable p9 equal 0.00512842


# Set up rotating drum
atom_style      granular
atom_modify map array

boundary        f f f       # non-periodic
newton          off         # Sets newtons 3rd law on or off
communicate     single vel yes
units           si


# Simulated region
region domain block -0.048 0.048 -0.025 0.025 -0.048 0.048 units box
create_box 3 domain
Created orthogonal box = (-0.048 -0.025 -0.048) to (0.048 0.025 0.048)
  1 by 1 by 1 MPI processor grid


# Set up the neighbor-list
neighbor        0.0008  bin
neigh_modify    delay   0
hard_particles  yes
soft_particles  yes


# Particle / wall contact properties
fix m1 all property/global youngsModulus peratomtype     ${youngmodP}    ${youngmodP}    ${youngmodP}
fix m1 all property/global youngsModulus peratomtype     5000000    ${youngmodP}    ${youngmodP}
fix m1 all property/global youngsModulus peratomtype     5000000    5000000    ${youngmodP}
fix m1 all property/global youngsModulus peratomtype     5000000    5000000    5000000

fix m2 all property/global poissonsRatio peratomtype     ${poissP}       ${poissP}       ${poissP}
fix m2 all property/global poissonsRatio peratomtype     0.3       ${poissP}       ${poissP}
fix m2 all property/global poissonsRatio peratomtype     0.3       0.3       ${poissP}
fix m2 all property/global poissonsRatio peratomtype     0.3       0.3       0.3

fix m3 all property/global coefficientFriction peratomtypepair 3     ${fricPP}       ${fricPW}       ${fricPSW}          ${fricPW}       ${fric}         ${fric}             ${fricPSW}      ${fric}         ${fric}
fix m3 all property/global coefficientFriction peratomtypepair 3     0.4       ${fricPW}       ${fricPSW}          ${fricPW}       ${fric}         ${fric}             ${fricPSW}      ${fric}         ${fric}
fix m3 all property/global coefficientFriction peratomtypepair 3     0.4       0.4       ${fricPSW}          ${fricPW}       ${fric}         ${fric}             ${fricPSW}      ${fric}         ${fric}
fix m3 all property/global coefficientFriction peratomtypepair 3     0.4       0.4       0.4          ${fricPW}       ${fric}         ${fric}             ${fricPSW}      ${fric}         ${fric}
fix m3 all property/global coefficientFriction peratomtypepair 3     0.4       0.4       0.4          0.4       ${fric}         ${fric}             ${fricPSW}      ${fric}         ${fric}
fix m3 all property/global coefficientFriction peratomtypepair 3     0.4       0.4       0.4          0.4       0.5         ${fric}             ${fricPSW}      ${fric}         ${fric}
fix m3 all property/global coefficientFriction peratomtypepair 3     0.4       0.4       0.4          0.4       0.5         0.5             ${fricPSW}      ${fric}         ${fric}
fix m3 all property/global coefficientFriction peratomtypepair 3     0.4       0.4       0.4          0.4       0.5         0.5             0.4      ${fric}         ${fric}
fix m3 all property/global coefficientFriction peratomtypepair 3     0.4       0.4       0.4          0.4       0.5         0.5             0.4      0.5         ${fric}
fix m3 all property/global coefficientFriction peratomtypepair 3     0.4       0.4       0.4          0.4       0.5         0.5             0.4      0.5         0.5

fix m4 all property/global coefficientRollingFriction peratomtypepair 3     ${fricRollPP}   ${fricRollPW}   ${fricRollPSW}      ${fricRollPW}   ${fricRoll}     ${fricRoll}         ${fricRollPSW}  ${fricRoll}     ${fricRoll}
fix m4 all property/global coefficientRollingFriction peratomtypepair 3     0.1   ${fricRollPW}   ${fricRollPSW}      ${fricRollPW}   ${fricRoll}     ${fricRoll}         ${fricRollPSW}  ${fricRoll}     ${fricRoll}
fix m4 all property/global coefficientRollingFriction peratomtypepair 3     0.1   0.1   ${fricRollPSW}      ${fricRollPW}   ${fricRoll}     ${fricRoll}         ${fricRollPSW}  ${fricRoll}     ${fricRoll}
fix m4 all property/global coefficientRollingFriction peratomtypepair 3     0.1   0.1   0.1      ${fricRollPW}   ${fricRoll}     ${fricRoll}         ${fricRollPSW}  ${fricRoll}     ${fricRoll}
fix m4 all property/global coefficientRollingFriction peratomtypepair 3     0.1   0.1   0.1      0.1   ${fricRoll}     ${fricRoll}         ${fricRollPSW}  ${fricRoll}     ${fricRoll}
fix m4 all property/global coefficientRollingFriction peratomtypepair 3     0.1   0.1   0.1      0.1   0.5     ${fricRoll}         ${fricRollPSW}  ${fricRoll}     ${fricRoll}
fix m4 all property/global coefficientRollingFriction peratomtypepair 3     0.1   0.1   0.1      0.1   0.5     0.5         ${fricRollPSW}  ${fricRoll}     ${fricRoll}
fix m4 all property/global coefficientRollingFriction peratomtypepair 3     0.1   0.1   0.1      0.1   0.5     0.5         0.1  ${fricRoll}     ${fricRoll}
fix m4 all property/global coefficientRollingFriction peratomtypepair 3     0.1   0.1   0.1      0.1   0.5     0.5         0.1  0.5     ${fricRoll}
fix m4 all property/global coefficientRollingFriction peratomtypepair 3     0.1   0.1   0.1      0.1   0.5     0.5         0.1  0.5     0.5

fix m5 all property/global coefficientRestitution peratomtypepair 3     ${corPP}        ${corPW}        ${corPSW}           ${corPW}        ${cor}          ${cor}              ${corPSW}       ${cor}          ${cor}
fix m5 all property/global coefficientRestitution peratomtypepair 3     0.3        ${corPW}        ${corPSW}           ${corPW}        ${cor}          ${cor}              ${corPSW}       ${cor}          ${cor}
fix m5 all property/global coefficientRestitution peratomtypepair 3     0.3        0.3        ${corPSW}           ${corPW}        ${cor}          ${cor}              ${corPSW}       ${cor}          ${cor}
fix m5 all property/global coefficientRestitution peratomtypepair 3     0.3        0.3        0.3           ${corPW}        ${cor}          ${cor}              ${corPSW}       ${cor}          ${cor}
fix m5 all property/global coefficientRestitution peratomtypepair 3     0.3        0.3        0.3           0.3        ${cor}          ${cor}              ${corPSW}       ${cor}          ${cor}
fix m5 all property/global coefficientRestitution peratomtypepair 3     0.3        0.3        0.3           0.3        0.3          ${cor}              ${corPSW}       ${cor}          ${cor}
fix m5 all property/global coefficientRestitution peratomtypepair 3     0.3        0.3        0.3           0.3        0.3          0.3              ${corPSW}       ${cor}          ${cor}
fix m5 all property/global coefficientRestitution peratomtypepair 3     0.3        0.3        0.3           0.3        0.3          0.3              0.3       ${cor}          ${cor}
fix m5 all property/global coefficientRestitution peratomtypepair 3     0.3        0.3        0.3           0.3        0.3          0.3              0.3       0.3          ${cor}
fix m5 all property/global coefficientRestitution peratomtypepair 3     0.3        0.3        0.3           0.3        0.3          0.3              0.3       0.3          0.3

fix m6 all property/global cohesionEnergyDensity peratomtypepair 3     ${cohPP}        ${cohPW}        ${cohPSW}           ${cohPW}        ${coh}          ${coh}              ${cohPSW}       ${coh}          ${coh}
fix m6 all property/global cohesionEnergyDensity peratomtypepair 3     0        ${cohPW}        ${cohPSW}           ${cohPW}        ${coh}          ${coh}              ${cohPSW}       ${coh}          ${coh}
fix m6 all property/global cohesionEnergyDensity peratomtypepair 3     0        0        ${cohPSW}           ${cohPW}        ${coh}          ${coh}              ${cohPSW}       ${coh}          ${coh}
fix m6 all property/global cohesionEnergyDensity peratomtypepair 3     0        0        0           ${cohPW}        ${coh}          ${coh}              ${cohPSW}       ${coh}          ${coh}
fix m6 all property/global cohesionEnergyDensity peratomtypepair 3     0        0        0           0        ${coh}          ${coh}              ${cohPSW}       ${coh}          ${coh}
fix m6 all property/global cohesionEnergyDensity peratomtypepair 3     0        0        0           0        0          ${coh}              ${cohPSW}       ${coh}          ${coh}
fix m6 all property/global cohesionEnergyDensity peratomtypepair 3     0        0        0           0        0          0              ${cohPSW}       ${coh}          ${coh}
fix m6 all property/global cohesionEnergyDensity peratomtypepair 3     0        0        0           0        0          0              0       ${coh}          ${coh}
fix m6 all property/global cohesionEnergyDensity peratomtypepair 3     0        0        0           0        0          0              0       0          ${coh}
fix m6 all property/global cohesionEnergyDensity peratomtypepair 3     0        0        0           0        0          0              0       0          0

fix m7 all property/global k_finnie peratomtypepair 3 1.0 1.0 1.0 1.0 1.0 1.0 1.0 1.0 1.0


# Contact pair styles
pair_style gran model hertz tangential history cohesion sjkr rolling_friction cdt
WARNING: 
	The contact model you specified is not located in any whitelist.
	Because of this the model will be run in an unoptimized version (increasing runtime by up to 20%).
	In order to optimize this model you have the following options:
		(i)  Run the genAutoExamplesWhitelist.sh script in your LIGGGHTS(R) source folder to automatically parse the input script
		(ii) Add the model combination by hand to your style_contact_model_user.whitelist that can be found in your LIGGGHTS(R) source folder
	If you perform one of the steps above LIGGGHTS(R) needs to be recompiled to generate the optimized code.

 (/home/andreinicusan/Prog/Coexist/coexist-testing/PICI-LIGGGHTS/src/contact_models.h:364)
pair_coeff * *


# Timestep size
timestep ${timestep}
timestep 1e-05


# Set gravity as a constant force
fix gravi all gravity 9.81 vector 0.0 0.0 -1.0


# STL Geometries: drum / faces
fix cad all mesh/surface/stress file    mesh/rotating_drum_mm.stl       type 2 scale 0.001 wear finnie
fix side all mesh/surface/stress file   mesh/rotating_drum_side_mm.stl  type 3 scale 0.001
fix inface all mesh/surface file        mesh/inface_mm.stl              type 3 scale 0.001 move 0.0 0.0 -0.02


# Wall contact models
fix granwalls all wall/gran model hertz tangential history rolling_friction cdt  mesh n_meshes 2 meshes cad side


# Particle Size Distribution
fix pts0 all particletemplate/sphere 15485863 atom_type 1 density constant ${dens} radius constant ${r0}
fix pts0 all particletemplate/sphere 15485863 atom_type 1 density constant 1580 radius constant ${r0}
fix pts0 all particletemplate/sphere 15485863 atom_type 1 density constant 1580 radius constant 0.000525
fix pts1 all particletemplate/sphere 20433971 atom_type 1 density constant ${dens} radius constant ${r1}
fix pts1 all particletemplate/sphere 20433971 atom_type 1 density constant 1580 radius constant ${r1}
fix pts1 all particletemplate/sphere 20433971 atom_type 1 density constant 1580 radius constant 0.00055
fix pts2 all particletemplate/sphere 20433977 atom_type 1 density constant ${dens} radius constant ${r2}
fix pts2 all particletemplate/sphere 20433977 atom_type 1 density constant 1580 radius constant ${r2}
fix pts2 all particletemplate/sphere 20433977 atom_type 1 density constant 1580 radius constant 0.000575
fix pts3 all particletemplate/sphere 20434457 atom_type 1 density constant ${dens} radius constant ${r3}
fix pts3 all particletemplate/sphere 20434457 atom_type 1 density constant 1580 radius constant ${r3}
fix pts3 all particletemplate/sphere 20434457 atom_type 1 density constant 1580 radius constant 0.0006
fix pts4 all particletemplate/sphere 20434553 atom_type 1 density constant ${dens} radius constant ${r4}
fix pts4 all particletemplate/sphere 20434553 atom_type 1 density constant 1580 radius constant ${r4}
fix pts4 all particletemplate/sphere 20434553 atom_type 1 density constant 1580 radius constant 0.000625
fix pts5 all particletemplate/sphere 20435099 atom_type 1 density constant ${dens} radius constant ${r5}
fix pts5 all particletemplate/sphere 20435099 atom_type 1 density constant 1580 radius constant ${r5}
fix pts5 all particletemplate/sphere 20435099 atom_type 1 density constant 1580 radius constant 0.00065
fix pts6 all particletemplate/sphere 20437121 atom_type 1 density constant ${dens} radius constant ${r6}
fix pts6 all particletemplate/sphere 20437121 atom_type 1 density constant 1580 radius constant ${r6}
fix pts6 all particletemplate/sphere 20437121 atom_type 1 density constant 1580 radius constant 0.000675
fix pts7 all particletemplate/sphere 20437457 atom_type 1 density constant ${dens} radius constant ${r7}
fix pts7 all particletemplate/sphere 20437457 atom_type 1 density constant 1580 radius constant ${r7}
fix pts7 all particletemplate/sphere 20437457 atom_type 1 density constant 1580 radius constant 0.0007
fix pts8 all particletemplate/sphere 20437687 atom_type 1 density constant ${dens} radius constant ${r8}
fix pts8 all particletemplate/sphere 20437687 atom_type 1 density constant 1580 radius constant ${r8}
fix pts8 all particletemplate/sphere 20437687 atom_type 1 density constant 1580 radius constant 0.000725
fix pts9 all particletemplate/sphere 20437811 atom_type 1 density constant ${dens} radius constant ${r9}
fix pts9 all particletemplate/sphere 20437811 atom_type 1 density constant 1580 radius constant ${r9}
fix pts9 all particletemplate/sphere 20437811 atom_type 1 density constant 1580 radius constant 0.00075


fix pdd all particledistribution/discrete/numberbased 49979693 10 pts0 ${p0}  pts1 ${p1}  pts2 ${p2}  pts3 ${p3}  pts4 ${p4}  pts5 ${p5}  pts6 ${p6}  pts7 ${p7}  pts8 ${p8}  pts9 ${p9}
fix pdd all particledistribution/discrete/numberbased 49979693 10 pts0 0.0064659  pts1 ${p1}  pts2 ${p2}  pts3 ${p3}  pts4 ${p4}  pts5 ${p5}  pts6 ${p6}  pts7 ${p7}  pts8 ${p8}  pts9 ${p9}
fix pdd all particledistribution/discrete/numberbased 49979693 10 pts0 0.0064659  pts1 0.07387693  pts2 ${p2}  pts3 ${p3}  pts4 ${p4}  pts5 ${p5}  pts6 ${p6}  pts7 ${p7}  pts8 ${p8}  pts9 ${p9}
fix pdd all particledistribution/discrete/numberbased 49979693 10 pts0 0.0064659  pts1 0.07387693  pts2 0.26249571  pts3 ${p3}  pts4 ${p4}  pts5 ${p5}  pts6 ${p6}  pts7 ${p7}  pts8 ${p8}  pts9 ${p9}
fix pdd all particledistribution/discrete/numberbased 49979693 10 pts0 0.0064659  pts1 0.07387693  pts2 0.26249571  pts3 0.25249525  pts4 ${p4}  pts5 ${p5}  pts6 ${p6}  pts7 ${p7}  pts8 ${p8}  pts9 ${p9}
fix pdd all particledistribution/discrete/numberbased 49979693 10 pts0 0.0064659  pts1 0.07387693  pts2 0.26249571  pts3 0.25249525  pts4 0.17012964  pts5 ${p5}  pts6 ${p6}  pts7 ${p7}  pts8 ${p8}  pts9 ${p9}
fix pdd all particledistribution/discrete/numberbased 49979693 10 pts0 0.0064659  pts1 0.07387693  pts2 0.26249571  pts3 0.25249525  pts4 0.17012964  pts5 0.10530736  pts6 ${p6}  pts7 ${p7}  pts8 ${p8}  pts9 ${p9}
fix pdd all particledistribution/discrete/numberbased 49979693 10 pts0 0.0064659  pts1 0.07387693  pts2 0.26249571  pts3 0.25249525  pts4 0.17012964  pts5 0.10530736  pts6 0.06885834  pts7 ${p7}  pts8 ${p8}  pts9 ${p9}
fix pdd all particledistribution/discrete/numberbased 49979693 10 pts0 0.0064659  pts1 0.07387693  pts2 0.26249571  pts3 0.25249525  pts4 0.17012964  pts5 0.10530736  pts6 0.06885834  pts7 0.03662696  pts8 ${p8}  pts9 ${p9}
fix pdd all particledistribution/discrete/numberbased 49979693 10 pts0 0.0064659  pts1 0.07387693  pts2 0.26249571  pts3 0.25249525  pts4 0.17012964  pts5 0.10530736  pts6 0.06885834  pts7 0.03662696  pts8 0.01861549  pts9 ${p9}
fix pdd all particledistribution/discrete/numberbased 49979693 10 pts0 0.0064659  pts1 0.07387693  pts2 0.26249571  pts3 0.25249525  pts4 0.17012964  pts5 0.10530736  pts6 0.06885834  pts7 0.03662696  pts8 0.01861549  pts9 0.00512842


# Particle Insertion
fix ins all insert/stream   seed 32452867                                           distributiontemplate pdd                                nparticles ${N}                                         particlerate ${NRate}                                   overlapcheck yes                                        all_in no                                               vel constant 0.0 0.0 -0.5                               insertion_face inface extrude_length 0.03
fix ins all insert/stream   seed 32452867                                           distributiontemplate pdd                                nparticles 30000                                         particlerate ${NRate}                                   overlapcheck yes                                        all_in no                                               vel constant 0.0 0.0 -0.5                               insertion_face inface extrude_length 0.03
fix ins all insert/stream   seed 32452867                                           distributiontemplate pdd                                nparticles 30000                                         particlerate 300000                                   overlapcheck yes                                        all_in no                                               vel constant 0.0 0.0 -0.5                               insertion_face inface extrude_length 0.03


# Integration scheme
fix integr all nve/sphere


# Output settings, include total thermal energy
modify_timing on

thermo        1000
thermo_style  custom step atoms ke vol time
thermo_modify lost ignore norm no


# Save particle locations as VTK files straight from LIGGGHTS. The `coexist` library can also
# export data in the newer, more efficient XML-based VTU file format - without needing to link
# against a VTK library
# dump dmp all custom/vtk 1000 post/drum_*.vtk id type type x y z ix iy iz vx vy vz fx fy fz omegax omegay omegaz radius


# Rotate drum
fix move  all move/mesh mesh cad  rotate origin 0. 0. 0. axis  0. 1. 0. period ${rotationPeriod}
fix move  all move/mesh mesh cad  rotate origin 0. 0. 0. axis  0. 1. 0. period 1.33333333333333
fix move2 all move/mesh mesh side rotate origin 0. 0. 0. axis  0. 1. 0. period ${rotationPeriod}
fix move2 all move/mesh mesh side rotate origin 0. 0. 0. axis  0. 1. 0. period 1.33333333333333


# Run the first 10,000 timesteps to make sure all particles are inserted; driven by the
# `simulation_script.py`
# run 1000
run 199999.0 post no
Setting up run at Fri Dec  3 14:09:26 2021

WARNING: Fix mesh: Mesh contains highly skewed element, moving mesh (if used) will not parallelize well (/home/andreinicusan/Prog/Coexist/coexist-testing/PICI-LIGGGHTS/src/surface_mesh_I.h:657)
INFO: Particle insertion ins: 18000.000000 particles every 6000 steps - particle rate 300000.000000, (mass rate 4.588898e-01)
      30000 particles (mass 4.588898e-02) within 6000 steps
Memory usage per processor = 10.6601 Mbytes
    Step    Atoms         KinEng         Volume           Time 
       0        0              0      0.0004608              0 
INFO: Particle insertion ins: inserted 14854 particle templates (mass 2.381948e-02) at step 1
 - a total of 14854 particle templates (mass 2.381948e-02) inserted so far.
WARNING: Particle insertion: Less insertions than requested (/home/andreinicusan/Prog/Coexist/coexist-testing/PICI-LIGGGHTS/src/fix_insert.cpp:814)
    1000    14854   0.0035709852      0.0004608           0.01 
    2000    14854   0.0041507476      0.0004608           0.02 
    3000    14854   0.0044214901      0.0004608           0.03 
    4000    14854   0.0036582737      0.0004608           0.04 
    5000    14854   0.0025658826      0.0004608           0.05 
    6000    14854   0.0011565439      0.0004608           0.06 
INFO: Particle insertion ins: inserted 15146 particle templates (mass 2.317034e-02) at step 6001
 - a total of 30000 particle templates (mass 4.698981e-02) inserted so far.
    7000    30000   0.0031651157      0.0004608           0.07 
    8000    30000   0.0030264983      0.0004608           0.08 
    9000    30000   0.0030692347      0.0004608           0.09 
   10000    30000   0.0039739834      0.0004608            0.1 
   11000    30000   0.0052774883      0.0004608           0.11 
   12000    30000    0.010043976      0.0004608           0.12 
   13000    30000      0.1413474      0.0004608           0.13 
   14000    30000    0.018064903      0.0004608           0.14 
   15000    30000   0.0046280561      0.0004608           0.15 
   16000    30000   0.0017554567      0.0004608           0.16 
   17000    30000   0.0009128376      0.0004608           0.17 
   18000    30000  0.00080995778      0.0004608           0.18 
   19000    30000   0.0012336787      0.0004608           0.19 
   20000    30000   0.0020634237      0.0004608            0.2 
   21000    30000   0.0032180845      0.0004608           0.21 
   22000    30000   0.0045940396      0.0004608           0.22 
   23000    30000   0.0060248125      0.0004608           0.23 
   24000    30000   0.0071746074      0.0004608           0.24 
   25000    30000   0.0074694544      0.0004608           0.25 
   26000    30000   0.0058577711      0.0004608           0.26 
   27000    30000  0.00060514382      0.0004608           0.27 
   28000    30000  0.00068785128      0.0004608           0.28 
   29000    30000  0.00056822905      0.0004608           0.29 
   30000    30000  0.00049455977      0.0004608            0.3 
   31000    30000  0.00047235138      0.0004608           0.31 
   32000    30000  0.00046009551      0.0004608           0.32 
   33000    30000  0.00046087708      0.0004608           0.33 
   34000    30000  0.00046158555      0.0004608           0.34 
   35000    30000  0.00046065143      0.0004608           0.35 
   36000    30000  0.00045909662      0.0004608           0.36 
   37000    30000  0.00045749766      0.0004608           0.37 
   38000    30000   0.0004557542      0.0004608           0.38 
   39000    30000  0.00045376618      0.0004608           0.39 
   40000    30000  0.00045100284      0.0004608            0.4 
   41000    30000  0.00044816479      0.0004608           0.41 
   42000    30000  0.00044624042      0.0004608           0.42 
   43000    30000  0.00044568482      0.0004608           0.43 
   44000    30000  0.00044678151      0.0004608           0.44 
   45000    30000   0.0004511925      0.0004608           0.45 
   46000    30000  0.00046230307      0.0004608           0.46 
   47000    30000  0.00048327742      0.0004608           0.47 
   48000    30000   0.0005129005      0.0004608           0.48 
   49000    30000  0.00055513309      0.0004608           0.49 
   50000    30000  0.00061146218      0.0004608            0.5 
   51000    30000  0.00069089331      0.0004608           0.51 
   52000    30000   0.0007866349      0.0004608           0.52 
   53000    30000  0.00090348904      0.0004608           0.53 
   54000    30000   0.0010274071      0.0004608           0.54 
   55000    30000   0.0011695722      0.0004608           0.55 
   56000    30000   0.0013049008      0.0004608           0.56 
   57000    30000    0.001379916      0.0004608           0.57 
   58000    30000   0.0014031071      0.0004608           0.58 
   59000    30000   0.0013762086      0.0004608           0.59 
   60000    30000   0.0013490496      0.0004608            0.6 
   61000    30000     0.00128214      0.0004608           0.61 
   62000    30000   0.0012388282      0.0004608           0.62 
   63000    30000   0.0011951947      0.0004608           0.63 
   64000    30000   0.0011435781      0.0004608           0.64 
   65000    30000   0.0011118011      0.0004608           0.65 
   66000    30000   0.0010736848      0.0004608           0.66 
   67000    30000   0.0010529048      0.0004608           0.67 
   68000    30000  0.00099817045      0.0004608           0.68 
   69000    30000  0.00097497718      0.0004608           0.69 
   70000    30000  0.00096297537      0.0004608            0.7 
   71000    30000   0.0009471079      0.0004608           0.71 
   72000    30000  0.00093883386      0.0004608           0.72 
   73000    30000  0.00093108119      0.0004608           0.73 
   74000    30000   0.0009290397      0.0004608           0.74 
   75000    30000  0.00091797669      0.0004608           0.75 
   76000    30000  0.00090995327      0.0004608           0.76 
   77000    30000  0.00091844673      0.0004608           0.77 
   78000    30000  0.00091857542      0.0004608           0.78 
   79000    30000  0.00092446068      0.0004608           0.79 
   80000    30000  0.00091834624      0.0004608            0.8 
   81000    30000  0.00091629445      0.0004608           0.81 
   82000    30000  0.00091803568      0.0004608           0.82 
   83000    30000  0.00091547701      0.0004608           0.83 
   84000    30000    0.000941845      0.0004608           0.84 
   85000    30000  0.00092953028      0.0004608           0.85 
   86000    30000  0.00093372962      0.0004608           0.86 
   87000    30000  0.00092269554      0.0004608           0.87 
   88000    30000  0.00094097407      0.0004608           0.88 
   89000    30000  0.00094499056      0.0004608           0.89 
   90000    30000  0.00095884975      0.0004608            0.9 
   91000    30000  0.00097533545      0.0004608           0.91 
   92000    30000  0.00097042109      0.0004608           0.92 
   93000    30000  0.00096909684      0.0004608           0.93 
   94000    30000  0.00097166738      0.0004608           0.94 
   95000    30000  0.00097056346      0.0004608           0.95 
   96000    30000  0.00098139282      0.0004608           0.96 
   97000    30000  0.00097096425      0.0004608           0.97 
   98000    30000  0.00095979055      0.0004608           0.98 
   99000    30000  0.00096695715      0.0004608           0.99 
  100000    30000  0.00096447187      0.0004608              1 
  101000    30000  0.00095997236      0.0004608           1.01 
  102000    30000  0.00096174955      0.0004608           1.02 
  103000    30000  0.00095442241      0.0004608           1.03 
  104000    30000  0.00095800839      0.0004608           1.04 
  105000    30000  0.00095309407      0.0004608           1.05 
  106000    30000   0.0009508532      0.0004608           1.06 
  107000    30000  0.00095518275      0.0004608           1.07 
  108000    30000  0.00097105832      0.0004608           1.08 
  109000    30000  0.00095832707      0.0004608           1.09 
  110000    30000  0.00095120997      0.0004608            1.1 
  111000    30000  0.00095629282      0.0004608           1.11 
  112000    30000  0.00095656336      0.0004608           1.12 
  113000    30000  0.00095876283      0.0004608           1.13 
  114000    30000  0.00095561174      0.0004608           1.14 
  115000    30000  0.00096382663      0.0004608           1.15 
  116000    30000  0.00095995714      0.0004608           1.16 
  117000    30000  0.00095555965      0.0004608           1.17 
  118000    30000  0.00095592787      0.0004608           1.18 
  119000    30000   0.0009584869      0.0004608           1.19 
  120000    30000  0.00094176698      0.0004608            1.2 
  121000    30000  0.00093460447      0.0004608           1.21 
  122000    30000   0.0009450726      0.0004608           1.22 
  123000    30000   0.0009564294      0.0004608           1.23 
  124000    30000  0.00095023237      0.0004608           1.24 
  125000    30000  0.00094404673      0.0004608           1.25 
  126000    30000  0.00094165196      0.0004608           1.26 
  127000    30000  0.00095136938      0.0004608           1.27 
  128000    30000  0.00095680947      0.0004608           1.28 
  129000    30000   0.0009531074      0.0004608           1.29 
  130000    30000  0.00094740748      0.0004608            1.3 
  131000    30000  0.00094251779      0.0004608           1.31 
  132000    30000  0.00094212415      0.0004608           1.32 
  133000    30000  0.00093779001      0.0004608           1.33 
  134000    30000  0.00097387029      0.0004608           1.34 
  135000    30000   0.0009694118      0.0004608           1.35 
  136000    30000  0.00095049555      0.0004608           1.36 
  137000    30000  0.00094881743      0.0004608           1.37 
  138000    30000  0.00094693417      0.0004608           1.38 
  139000    30000    0.000952192      0.0004608           1.39 
  140000    30000   0.0009559674      0.0004608            1.4 
  141000    30000  0.00094857205      0.0004608           1.41 
  142000    30000  0.00095062114      0.0004608           1.42 
  143000    30000  0.00095544473      0.0004608           1.43 
  144000    30000  0.00094368912      0.0004608           1.44 
  145000    30000   0.0009428302      0.0004608           1.45 
  146000    30000  0.00096033302      0.0004608           1.46 
  147000    30000  0.00095734278      0.0004608           1.47 
  148000    30000  0.00095397142      0.0004608           1.48 
  149000    30000  0.00096203365      0.0004608           1.49 
  150000    30000   0.0009555952      0.0004608            1.5 
  151000    30000  0.00094325936      0.0004608           1.51 
  152000    30000  0.00095870187      0.0004608           1.52 
  153000    30000  0.00097166741      0.0004608           1.53 
  154000    30000  0.00096854584      0.0004608           1.54 
  155000    30000  0.00096498099      0.0004608           1.55 
  156000    30000  0.00094913315      0.0004608           1.56 
  157000    30000  0.00095578524      0.0004608           1.57 
  158000    30000   0.0009653116      0.0004608           1.58 
  159000    30000  0.00095973554      0.0004608           1.59 
  160000    30000  0.00094855667      0.0004608            1.6 
  161000    30000   0.0009567203      0.0004608           1.61 
  162000    30000  0.00093185186      0.0004608           1.62 
  163000    30000  0.00094746207      0.0004608           1.63 
  164000    30000  0.00093756177      0.0004608           1.64 
  165000    30000   0.0009428808      0.0004608           1.65 
  166000    30000  0.00094600188      0.0004608           1.66 
  167000    30000  0.00095484382      0.0004608           1.67 
  168000    30000  0.00094868384      0.0004608           1.68 
  169000    30000  0.00094512721      0.0004608           1.69 
  170000    30000  0.00095409108      0.0004608            1.7 
  171000    30000   0.0009425422      0.0004608           1.71 
  172000    30000  0.00093500626      0.0004608           1.72 
  173000    30000  0.00094025456      0.0004608           1.73 
  174000    30000  0.00095416817      0.0004608           1.74 
  175000    30000  0.00095615686      0.0004608           1.75 
  176000    30000  0.00094428978      0.0004608           1.76 
  177000    30000  0.00095552307      0.0004608           1.77 
  178000    30000  0.00096608538      0.0004608           1.78 
  179000    30000  0.00096530063      0.0004608           1.79 
  180000    30000  0.00096000486      0.0004608            1.8 
  181000    30000  0.00096069716      0.0004608           1.81 
  182000    30000  0.00095084653      0.0004608           1.82 
  183000    30000  0.00095022227      0.0004608           1.83 
  184000    30000  0.00095538638      0.0004608           1.84 
  185000    30000  0.00097569485      0.0004608           1.85 
  186000    30000  0.00095802116      0.0004608           1.86 
  187000    30000  0.00094552267      0.0004608           1.87 
  188000    30000  0.00095090389      0.0004608           1.88 
  189000    30000  0.00094398865      0.0004608           1.89 
  190000    30000  0.00095559241      0.0004608            1.9 
  191000    30000  0.00094857801      0.0004608           1.91 
  192000    30000  0.00094717323      0.0004608           1.92 
  193000    30000  0.00095059818      0.0004608           1.93 
  194000    30000  0.00094762616      0.0004608           1.94 
  195000    30000  0.00096332723      0.0004608           1.95 
  196000    30000  0.00095360147      0.0004608           1.96 
  197000    30000  0.00095212704      0.0004608           1.97 
  198000    30000  0.00095048008      0.0004608           1.98 
  199000    30000   0.0009504424      0.0004608           1.99 
  199999    30000  0.00095880135      0.0004608        1.99999 
Loop time of 3260.06 on 1 procs for 199999 steps with 30000 atoms, finish time Fri Dec  3 15:03:46 2021

timestep 9.999999999836395e-06
run 1 post no
Setting up run at Fri Dec  3 15:03:46 2021

Memory usage per processor = 41.4109 Mbytes
    Step    Atoms         KinEng         Volume           Time 
  199999    30000  0.00095880135      0.0004608        1.99999 
  200000    30000  0.00095871025      0.0004608              2 
Loop time of 0.0145804 on 1 procs for 1 steps with 30000 atoms, finish time Fri Dec  3 15:03:47 2021

timestep 1e-05
run 833.0 post no
Setting up run at Fri Dec  3 15:03:47 2021

Memory usage per processor = 41.4109 Mbytes
    Step    Atoms         KinEng         Volume           Time 
  200000    30000  0.00095871025      0.0004608              2 
  200833    30000  0.00095730655      0.0004608        2.00833 
Loop time of 12.2074 on 1 procs for 833 steps with 30000 atoms, finish time Fri Dec  3 15:03:59 2021

timestep 3.333333333303046e-06
run 1 post no
Setting up run at Fri Dec  3 15:03:59 2021

Memory usage per processor = 41.4109 Mbytes
    Step    Atoms         KinEng         Volume           Time 
  200833    30000  0.00095730655      0.0004608        2.00833 
  200834    30000  0.00095724993      0.0004608      2.0083333 
Loop time of 0.015062 on 1 procs for 1 steps with 30000 atoms, finish time Fri Dec  3 15:03:59 2021

timestep 1e-05
run 833.0 post no
Setting up run at Fri Dec  3 15:03:59 2021

Memory usage per processor = 41.4109 Mbytes
    Step    Atoms         KinEng         Volume           Time 
  200834    30000  0.00095724993      0.0004608      2.0083333 
  201000    30000  0.00095359793      0.0004608      2.0099933 
  201667    30000  0.00095947464      0.0004608      2.0166633 
Loop time of 12.3225 on 1 procs for 833 steps with 30000 atoms, finish time Fri Dec  3 15:04:11 2021

timestep 3.333333333303046e-06
run 1 post no
Setting up run at Fri Dec  3 15:04:11 2021

Memory usage per processor = 41.4109 Mbytes
    Step    Atoms         KinEng         Volume           Time 
  201667    30000  0.00095947464      0.0004608      2.0166633 
  201668    30000  0.00095943889      0.0004608      2.0166667 
Loop time of 0.0147794 on 1 procs for 1 steps with 30000 atoms, finish time Fri Dec  3 15:04:12 2021

timestep 1e-05
run 833.0 post no
Setting up run at Fri Dec  3 15:04:12 2021

Memory usage per processor = 41.4109 Mbytes
    Step    Atoms         KinEng         Volume           Time 
  201668    30000  0.00095943889      0.0004608      2.0166667 
  202000    30000  0.00095754136      0.0004608      2.0199867 
  202501    30000  0.00096086642      0.0004608      2.0249967 
Loop time of 12.4076 on 1 procs for 833 steps with 30000 atoms, finish time Fri Dec  3 15:04:24 2021

timestep 3.333333333303046e-06
run 1 post no
Setting up run at Fri Dec  3 15:04:24 2021

Memory usage per processor = 41.4109 Mbytes
    Step    Atoms         KinEng         Volume           Time 
  202501    30000  0.00096086642      0.0004608      2.0249967 
  202502    30000  0.00096083125      0.0004608          2.025 
Loop time of 0.0148418 on 1 procs for 1 steps with 30000 atoms, finish time Fri Dec  3 15:04:24 2021

timestep 1e-05
run 833.0 post no
Setting up run at Fri Dec  3 15:04:24 2021

Memory usage per processor = 41.4109 Mbytes
    Step    Atoms         KinEng         Volume           Time 
  202502    30000  0.00096083125      0.0004608          2.025 
  203000    30000   0.0009634223      0.0004608        2.02998 
  203335    30000  0.00097067854      0.0004608        2.03333 
Loop time of 12.4522 on 1 procs for 833 steps with 30000 atoms, finish time Fri Dec  3 15:04:37 2021

timestep 3.333333333303046e-06
run 1 post no
Setting up run at Fri Dec  3 15:04:37 2021

Memory usage per processor = 41.4109 Mbytes
    Step    Atoms         KinEng         Volume           Time 
  203335    30000  0.00097067854      0.0004608        2.03333 
  203336    30000  0.00097064807      0.0004608      2.0333333 
Loop time of 0.0149008 on 1 procs for 1 steps with 30000 atoms, finish time Fri Dec  3 15:04:37 2021

timestep 1e-05
run 833.0 post no
Setting up run at Fri Dec  3 15:04:37 2021

Memory usage per processor = 41.4109 Mbytes
    Step    Atoms         KinEng         Volume           Time 
  203336    30000  0.00097064807      0.0004608      2.0333333 
  204000    30000  0.00097452286      0.0004608      2.0399733 
  204169    30000  0.00096926426      0.0004608      2.0416633 
Loop time of 12.59 on 1 procs for 833 steps with 30000 atoms, finish time Fri Dec  3 15:04:50 2021

timestep 3.333333333303046e-06
run 1 post no
Setting up run at Fri Dec  3 15:04:50 2021

Memory usage per processor = 41.4109 Mbytes
    Step    Atoms         KinEng         Volume           Time 
  204169    30000  0.00096926426      0.0004608      2.0416633 
  204170    30000   0.0009692231      0.0004608      2.0416667 
Loop time of 0.0152427 on 1 procs for 1 steps with 30000 atoms, finish time Fri Dec  3 15:04:50 2021

timestep 1e-05
run 833.0 post no
Setting up run at Fri Dec  3 15:04:50 2021

Memory usage per processor = 41.4109 Mbytes
    Step    Atoms         KinEng         Volume           Time 
  204170    30000   0.0009692231      0.0004608      2.0416667 
  205000    30000  0.00095901164      0.0004608      2.0499667 
  205003    30000  0.00095905025      0.0004608      2.0499967 
Loop time of 12.8216 on 1 procs for 833 steps with 30000 atoms, finish time Fri Dec  3 15:05:03 2021

timestep 3.333333333303046e-06
run 1 post no
Setting up run at Fri Dec  3 15:05:03 2021

Memory usage per processor = 41.4109 Mbytes
    Step    Atoms         KinEng         Volume           Time 
  205003    30000  0.00095905025      0.0004608      2.0499967 
  205004    30000  0.00095902151      0.0004608           2.05 
Loop time of 0.0146772 on 1 procs for 1 steps with 30000 atoms, finish time Fri Dec  3 15:05:03 2021

timestep 1e-05
run 833.0 post no
Setting up run at Fri Dec  3 15:05:03 2021

Memory usage per processor = 41.4109 Mbytes
    Step    Atoms         KinEng         Volume           Time 
  205004    30000  0.00095902151      0.0004608           2.05 
  205837    30000  0.00094999841      0.0004608        2.05833 
Loop time of 12.7802 on 1 procs for 833 steps with 30000 atoms, finish time Fri Dec  3 15:05:16 2021

timestep 3.333333333303046e-06
run 1 post no
Setting up run at Fri Dec  3 15:05:16 2021

Memory usage per processor = 41.4109 Mbytes
    Step    Atoms         KinEng         Volume           Time 
  205837    30000  0.00094999841      0.0004608        2.05833 
  205838    30000  0.00094996135      0.0004608      2.0583333 
Loop time of 0.0140544 on 1 procs for 1 steps with 30000 atoms, finish time Fri Dec  3 15:05:16 2021

timestep 1e-05
run 833.0 post no
Setting up run at Fri Dec  3 15:05:16 2021

Memory usage per processor = 41.4109 Mbytes
    Step    Atoms         KinEng         Volume           Time 
  205838    30000  0.00094996135      0.0004608      2.0583333 
  206000    30000  0.00094774304      0.0004608      2.0599533 
  206671    30000  0.00094999612      0.0004608      2.0666633 
Loop time of 12.8698 on 1 procs for 833 steps with 30000 atoms, finish time Fri Dec  3 15:05:29 2021

timestep 3.333333333303046e-06
run 1 post no
Setting up run at Fri Dec  3 15:05:29 2021

Memory usage per processor = 41.4109 Mbytes
    Step    Atoms         KinEng         Volume           Time 
  206671    30000  0.00094999612      0.0004608      2.0666633 
  206672    30000  0.00094994239      0.0004608      2.0666667 
Loop time of 0.0146708 on 1 procs for 1 steps with 30000 atoms, finish time Fri Dec  3 15:05:29 2021

timestep 1e-05
run 833.0 post no
Setting up run at Fri Dec  3 15:05:29 2021

Memory usage per processor = 41.4109 Mbytes
    Step    Atoms         KinEng         Volume           Time 
  206672    30000  0.00094994239      0.0004608      2.0666667 
  207000    30000  0.00094458785      0.0004608      2.0699467 
  207505    30000  0.00094392432      0.0004608      2.0749967 
Loop time of 12.9501 on 1 procs for 833 steps with 30000 atoms, finish time Fri Dec  3 15:05:42 2021

timestep 3.333333333303046e-06
run 1 post no
Setting up run at Fri Dec  3 15:05:42 2021

Memory usage per processor = 41.4109 Mbytes
    Step    Atoms         KinEng         Volume           Time 
  207505    30000  0.00094392432      0.0004608      2.0749967 
  207506    30000  0.00094388271      0.0004608          2.075 
Loop time of 0.0148771 on 1 procs for 1 steps with 30000 atoms, finish time Fri Dec  3 15:05:43 2021

timestep 1e-05
run 833.0 post no
Setting up run at Fri Dec  3 15:05:43 2021

Memory usage per processor = 41.4109 Mbytes
    Step    Atoms         KinEng         Volume           Time 
  207506    30000  0.00094388271      0.0004608          2.075 
  208000    30000  0.00094196188      0.0004608        2.07994 
  208339    30000  0.00093858178      0.0004608        2.08333 
Loop time of 13.0393 on 1 procs for 833 steps with 30000 atoms, finish time Fri Dec  3 15:05:56 2021

timestep 3.333333333303046e-06
run 1 post no
Setting up run at Fri Dec  3 15:05:56 2021

Memory usage per processor = 41.4109 Mbytes
    Step    Atoms         KinEng         Volume           Time 
  208339    30000  0.00093858178      0.0004608        2.08333 
  208340    30000  0.00093854208      0.0004608      2.0833333 
Loop time of 0.0148274 on 1 procs for 1 steps with 30000 atoms, finish time Fri Dec  3 15:05:56 2021

timestep 1e-05
run 833.0 post no
Setting up run at Fri Dec  3 15:05:56 2021

Memory usage per processor = 41.4109 Mbytes
    Step    Atoms         KinEng         Volume           Time 
  208340    30000  0.00093854208      0.0004608      2.0833333 
  209000    30000   0.0009479087      0.0004608      2.0899333 
  209173    30000  0.00095093585      0.0004608      2.0916633 
Loop time of 13.4497 on 1 procs for 833 steps with 30000 atoms, finish time Fri Dec  3 15:06:10 2021

timestep 3.333333333303046e-06
run 1 post no
Setting up run at Fri Dec  3 15:06:10 2021

Memory usage per processor = 41.4109 Mbytes
    Step    Atoms         KinEng         Volume           Time 
  209173    30000  0.00095093585      0.0004608      2.0916633 
  209174    30000  0.00095090143      0.0004608      2.0916667 
Loop time of 0.0166696 on 1 procs for 1 steps with 30000 atoms, finish time Fri Dec  3 15:06:10 2021

timestep 1e-05
run 833.0 post no
Setting up run at Fri Dec  3 15:06:10 2021

Memory usage per processor = 41.4109 Mbytes
    Step    Atoms         KinEng         Volume           Time 
  209174    30000  0.00095090143      0.0004608      2.0916667 
  210000    30000  0.00094422546      0.0004608      2.0999267 
  210007    30000  0.00094408894      0.0004608      2.0999967 
Loop time of 13.2695 on 1 procs for 833 steps with 30000 atoms, finish time Fri Dec  3 15:06:23 2021

timestep 3.333333333303046e-06
run 1 post no
Setting up run at Fri Dec  3 15:06:23 2021

Memory usage per processor = 41.4109 Mbytes
    Step    Atoms         KinEng         Volume           Time 
  210007    30000  0.00094408894      0.0004608      2.0999967 
  210008    30000  0.00094403296      0.0004608            2.1 
Loop time of 0.0147032 on 1 procs for 1 steps with 30000 atoms, finish time Fri Dec  3 15:06:23 2021

timestep 1e-05
run 833.0 post no
Setting up run at Fri Dec  3 15:06:23 2021

Memory usage per processor = 41.4109 Mbytes
    Step    Atoms         KinEng         Volume           Time 
  210008    30000  0.00094403296      0.0004608            2.1 
  210841    30000   0.0009401417      0.0004608        2.10833 
Loop time of 13.443 on 1 procs for 833 steps with 30000 atoms, finish time Fri Dec  3 15:06:37 2021

timestep 3.333333333303046e-06
run 1 post no
Setting up run at Fri Dec  3 15:06:37 2021

Memory usage per processor = 41.4109 Mbytes
    Step    Atoms         KinEng         Volume           Time 
  210841    30000   0.0009401417      0.0004608        2.10833 
  210842    30000  0.00094009119      0.0004608      2.1083333 
Loop time of 0.0146438 on 1 procs for 1 steps with 30000 atoms, finish time Fri Dec  3 15:06:37 2021

timestep 1e-05
run 833.0 post no
Setting up run at Fri Dec  3 15:06:37 2021

Memory usage per processor = 41.4109 Mbytes
    Step    Atoms         KinEng         Volume           Time 
  210842    30000  0.00094009119      0.0004608      2.1083333 
  211000    30000  0.00093789637      0.0004608      2.1099133 
  211675    30000  0.00093427158      0.0004608      2.1166633 
Loop time of 13.3415 on 1 procs for 833 steps with 30000 atoms, finish time Fri Dec  3 15:06:51 2021

timestep 3.333333333303046e-06
run 1 post no
Setting up run at Fri Dec  3 15:06:51 2021

Memory usage per processor = 41.4109 Mbytes
    Step    Atoms         KinEng         Volume           Time 
  211675    30000  0.00093427158      0.0004608      2.1166633 
  211676    30000  0.00093423465      0.0004608      2.1166667 
Loop time of 0.0150322 on 1 procs for 1 steps with 30000 atoms, finish time Fri Dec  3 15:06:51 2021

timestep 1e-05
run 833.0 post no
Setting up run at Fri Dec  3 15:06:51 2021

Memory usage per processor = 41.4109 Mbytes
    Step    Atoms         KinEng         Volume           Time 
  211676    30000  0.00093423465      0.0004608      2.1166667 
  212000    30000  0.00093993356      0.0004608      2.1199067 
  212509    30000  0.00095157526      0.0004608      2.1249967 
Loop time of 13.3628 on 1 procs for 833 steps with 30000 atoms, finish time Fri Dec  3 15:07:05 2021

timestep 3.333333333303046e-06
run 1 post no
Setting up run at Fri Dec  3 15:07:05 2021

Memory usage per processor = 41.4109 Mbytes
    Step    Atoms         KinEng         Volume           Time 
  212509    30000  0.00095157526      0.0004608      2.1249967 
  212510    30000  0.00095153679      0.0004608          2.125 
Loop time of 0.0148351 on 1 procs for 1 steps with 30000 atoms, finish time Fri Dec  3 15:07:05 2021

timestep 1e-05
run 833.0 post no
Setting up run at Fri Dec  3 15:07:05 2021

Memory usage per processor = 41.4109 Mbytes
    Step    Atoms         KinEng         Volume           Time 
  212510    30000  0.00095153679      0.0004608          2.125 
  213000    30000  0.00095020287      0.0004608         2.1299 
  213343    30000  0.00094635978      0.0004608        2.13333 
Loop time of 13.4648 on 1 procs for 833 steps with 30000 atoms, finish time Fri Dec  3 15:07:18 2021

timestep 3.333333333303046e-06
run 1 post no
Setting up run at Fri Dec  3 15:07:18 2021

Memory usage per processor = 41.4109 Mbytes
    Step    Atoms         KinEng         Volume           Time 
  213343    30000  0.00094635978      0.0004608        2.13333 
  213344    30000  0.00094631563      0.0004608      2.1333333 
Loop time of 0.0144489 on 1 procs for 1 steps with 30000 atoms, finish time Fri Dec  3 15:07:19 2021

timestep 1e-05
run 833.0 post no
Setting up run at Fri Dec  3 15:07:19 2021

Memory usage per processor = 41.4109 Mbytes
    Step    Atoms         KinEng         Volume           Time 
  213344    30000  0.00094631563      0.0004608      2.1333333 
  214000    30000  0.00094906257      0.0004608      2.1398933 
  214177    30000  0.00095050313      0.0004608      2.1416633 
Loop time of 13.4457 on 1 procs for 833 steps with 30000 atoms, finish time Fri Dec  3 15:07:32 2021

timestep 3.333333333303046e-06
run 1 post no
Setting up run at Fri Dec  3 15:07:32 2021

Memory usage per processor = 41.4109 Mbytes
    Step    Atoms         KinEng         Volume           Time 
  214177    30000  0.00095050313      0.0004608      2.1416633 
  214178    30000  0.00095046992      0.0004608      2.1416667 
Loop time of 0.0140251 on 1 procs for 1 steps with 30000 atoms, finish time Fri Dec  3 15:07:32 2021

timestep 1e-05
run 833.0 post no
Setting up run at Fri Dec  3 15:07:33 2021

Memory usage per processor = 41.4109 Mbytes
    Step    Atoms         KinEng         Volume           Time 
  214178    30000  0.00095046992      0.0004608      2.1416667 
  215000    30000  0.00095618367      0.0004608      2.1498867 
  215011    30000  0.00095598099      0.0004608      2.1499967 
Loop time of 13.4973 on 1 procs for 833 steps with 30000 atoms, finish time Fri Dec  3 15:07:46 2021

timestep 3.333333333303046e-06
run 1 post no
Setting up run at Fri Dec  3 15:07:46 2021

Memory usage per processor = 41.4109 Mbytes
    Step    Atoms         KinEng         Volume           Time 
  215011    30000  0.00095598099      0.0004608      2.1499967 
  215012    30000  0.00095592463      0.0004608           2.15 
Loop time of 0.0153353 on 1 procs for 1 steps with 30000 atoms, finish time Fri Dec  3 15:07:46 2021

timestep 1e-05
run 833.0 post no
Setting up run at Fri Dec  3 15:07:46 2021

Memory usage per processor = 41.4109 Mbytes
    Step    Atoms         KinEng         Volume           Time 
  215012    30000  0.00095592463      0.0004608           2.15 
  215845    30000  0.00094847626      0.0004608        2.15833 
Loop time of 13.5103 on 1 procs for 833 steps with 30000 atoms, finish time Fri Dec  3 15:08:00 2021

timestep 3.333333333303046e-06
run 1 post no
Setting up run at Fri Dec  3 15:08:00 2021

Memory usage per processor = 41.4109 Mbytes
    Step    Atoms         KinEng         Volume           Time 
  215845    30000  0.00094847626      0.0004608        2.15833 
  215846    30000  0.00094844471      0.0004608      2.1583333 
Loop time of 0.0140677 on 1 procs for 1 steps with 30000 atoms, finish time Fri Dec  3 15:08:00 2021

timestep 1e-05
run 833.0 post no
Setting up run at Fri Dec  3 15:08:00 2021

Memory usage per processor = 41.4109 Mbytes
    Step    Atoms         KinEng         Volume           Time 
  215846    30000  0.00094844471      0.0004608      2.1583333 
  216000    30000  0.00095009822      0.0004608      2.1598733 
  216679    30000   0.0009677494      0.0004608      2.1666633 
Loop time of 13.4855 on 1 procs for 833 steps with 30000 atoms, finish time Fri Dec  3 15:08:14 2021

timestep 3.333333333303046e-06
run 1 post no
Setting up run at Fri Dec  3 15:08:14 2021

Memory usage per processor = 41.4109 Mbytes
    Step    Atoms         KinEng         Volume           Time 
  216679    30000   0.0009677494      0.0004608      2.1666633 
  216680    30000  0.00096773378      0.0004608      2.1666667 
Loop time of 0.0145499 on 1 procs for 1 steps with 30000 atoms, finish time Fri Dec  3 15:08:14 2021

timestep 1e-05
run 833.0 post no
Setting up run at Fri Dec  3 15:08:14 2021

Memory usage per processor = 41.4109 Mbytes
    Step    Atoms         KinEng         Volume           Time 
  216680    30000  0.00096773378      0.0004608      2.1666667 
  217000    30000  0.00097192639      0.0004608      2.1698667 
  217513    30000  0.00097090285      0.0004608      2.1749967 
Loop time of 13.5403 on 1 procs for 833 steps with 30000 atoms, finish time Fri Dec  3 15:08:28 2021

timestep 3.333333333303046e-06
run 1 post no
Setting up run at Fri Dec  3 15:08:28 2021

Memory usage per processor = 41.4109 Mbytes
    Step    Atoms         KinEng         Volume           Time 
  217513    30000  0.00097090285      0.0004608      2.1749967 
  217514    30000  0.00097085501      0.0004608          2.175 
Loop time of 0.0149008 on 1 procs for 1 steps with 30000 atoms, finish time Fri Dec  3 15:08:28 2021

timestep 1e-05
run 833.0 post no
Setting up run at Fri Dec  3 15:08:28 2021

Memory usage per processor = 41.4109 Mbytes
    Step    Atoms         KinEng         Volume           Time 
  217514    30000  0.00097085501      0.0004608          2.175 
  218000    30000  0.00096583194      0.0004608        2.17986 
  218347    30000  0.00096022594      0.0004608        2.18333 
Loop time of 13.5903 on 1 procs for 833 steps with 30000 atoms, finish time Fri Dec  3 15:08:42 2021

timestep 3.333333333303046e-06
run 1 post no
Setting up run at Fri Dec  3 15:08:42 2021

Memory usage per processor = 41.4109 Mbytes
    Step    Atoms         KinEng         Volume           Time 
  218347    30000  0.00096022594      0.0004608        2.18333 
  218348    30000  0.00096016719      0.0004608      2.1833333 
Loop time of 0.0141977 on 1 procs for 1 steps with 30000 atoms, finish time Fri Dec  3 15:08:42 2021

timestep 1e-05
run 833.0 post no
Setting up run at Fri Dec  3 15:08:42 2021

Memory usage per processor = 41.4109 Mbytes
    Step    Atoms         KinEng         Volume           Time 
  218348    30000  0.00096016719      0.0004608      2.1833333 
  219000    30000  0.00094894132      0.0004608      2.1898533 
  219181    30000  0.00095392681      0.0004608      2.1916633 
Loop time of 13.5418 on 1 procs for 833 steps with 30000 atoms, finish time Fri Dec  3 15:08:56 2021

timestep 3.333333333303046e-06
run 1 post no
Setting up run at Fri Dec  3 15:08:56 2021

Memory usage per processor = 41.4109 Mbytes
    Step    Atoms         KinEng         Volume           Time 
  219181    30000  0.00095392681      0.0004608      2.1916633 
  219182    30000  0.00095390431      0.0004608      2.1916667 
Loop time of 0.0140556 on 1 procs for 1 steps with 30000 atoms, finish time Fri Dec  3 15:08:56 2021

timestep 1e-05
run 833.0 post no
Setting up run at Fri Dec  3 15:08:56 2021

Memory usage per processor = 41.4109 Mbytes
    Step    Atoms         KinEng         Volume           Time 
  219182    30000  0.00095390431      0.0004608      2.1916667 
  220000    30000  0.00094841011      0.0004608      2.1998467 
  220015    30000  0.00094829638      0.0004608      2.1999967 
Loop time of 13.5056 on 1 procs for 833 steps with 30000 atoms, finish time Fri Dec  3 15:09:10 2021

timestep 3.333333333303046e-06
run 1 post no
Setting up run at Fri Dec  3 15:09:10 2021

Memory usage per processor = 41.4109 Mbytes
    Step    Atoms         KinEng         Volume           Time 
  220015    30000  0.00094829638      0.0004608      2.1999967 
  220016    30000  0.00094824933      0.0004608            2.2 
Loop time of 0.0141141 on 1 procs for 1 steps with 30000 atoms, finish time Fri Dec  3 15:09:10 2021

timestep 1e-05
run 833.0 post no
Setting up run at Fri Dec  3 15:09:10 2021

Memory usage per processor = 41.4109 Mbytes
    Step    Atoms         KinEng         Volume           Time 
  220016    30000  0.00094824933      0.0004608            2.2 
  220849    30000  0.00095179228      0.0004608        2.20833 
Loop time of 13.4845 on 1 procs for 833 steps with 30000 atoms, finish time Fri Dec  3 15:09:24 2021

timestep 3.333333333303046e-06
run 1 post no
Setting up run at Fri Dec  3 15:09:24 2021

Memory usage per processor = 41.4109 Mbytes
    Step    Atoms         KinEng         Volume           Time 
  220849    30000  0.00095179228      0.0004608        2.20833 
  220850    30000  0.00095174777      0.0004608      2.2083333 
Loop time of 0.0151928 on 1 procs for 1 steps with 30000 atoms, finish time Fri Dec  3 15:09:24 2021

timestep 1e-05
run 833.0 post no
Setting up run at Fri Dec  3 15:09:24 2021

Memory usage per processor = 41.4109 Mbytes
    Step    Atoms         KinEng         Volume           Time 
  220850    30000  0.00095174777      0.0004608      2.2083333 
  221000    30000  0.00095010736      0.0004608      2.2098333 
  221683    30000  0.00094498073      0.0004608      2.2166633 
Loop time of 13.4608 on 1 procs for 833 steps with 30000 atoms, finish time Fri Dec  3 15:09:38 2021

timestep 3.333333333303046e-06
run 1 post no
Setting up run at Fri Dec  3 15:09:38 2021

Memory usage per processor = 41.4109 Mbytes
    Step    Atoms         KinEng         Volume           Time 
  221683    30000  0.00094498073      0.0004608      2.2166633 
  221684    30000  0.00094495062      0.0004608      2.2166667 
Loop time of 0.0150039 on 1 procs for 1 steps with 30000 atoms, finish time Fri Dec  3 15:09:38 2021

timestep 1e-05
run 833.0 post no
Setting up run at Fri Dec  3 15:09:38 2021

Memory usage per processor = 41.4109 Mbytes
    Step    Atoms         KinEng         Volume           Time 
  221684    30000  0.00094495062      0.0004608      2.2166667 
  222000    30000  0.00094485517      0.0004608      2.2198267 
  222517    30000  0.00094648435      0.0004608      2.2249967 
Loop time of 13.3331 on 1 procs for 833 steps with 30000 atoms, finish time Fri Dec  3 15:09:51 2021

timestep 3.333333333303046e-06
run 1 post no
Setting up run at Fri Dec  3 15:09:51 2021

Memory usage per processor = 41.4109 Mbytes
    Step    Atoms         KinEng         Volume           Time 
  222517    30000  0.00094648435      0.0004608      2.2249967 
  222518    30000  0.00094644611      0.0004608          2.225 
Loop time of 0.0149459 on 1 procs for 1 steps with 30000 atoms, finish time Fri Dec  3 15:09:52 2021

timestep 1e-05
run 833.0 post no
Setting up run at Fri Dec  3 15:09:52 2021

Memory usage per processor = 41.4109 Mbytes
    Step    Atoms         KinEng         Volume           Time 
  222518    30000  0.00094644611      0.0004608          2.225 
  223000    30000  0.00094942586      0.0004608        2.22982 
  223351    30000  0.00095136864      0.0004608        2.23333 
Loop time of 13.4191 on 1 procs for 833 steps with 30000 atoms, finish time Fri Dec  3 15:10:05 2021

timestep 3.333333333303046e-06
run 1 post no
Setting up run at Fri Dec  3 15:10:05 2021

Memory usage per processor = 41.4109 Mbytes
    Step    Atoms         KinEng         Volume           Time 
  223351    30000  0.00095136864      0.0004608        2.23333 
  223352    30000  0.00095133432      0.0004608      2.2333333 
Loop time of 0.0140789 on 1 procs for 1 steps with 30000 atoms, finish time Fri Dec  3 15:10:05 2021

timestep 1e-05
run 833.0 post no
Setting up run at Fri Dec  3 15:10:05 2021

Memory usage per processor = 41.4109 Mbytes
    Step    Atoms         KinEng         Volume           Time 
  223352    30000  0.00095133432      0.0004608      2.2333333 
  224000    30000  0.00095312343      0.0004608      2.2398133 
  224185    30000  0.00094891076      0.0004608      2.2416633 
Loop time of 13.275 on 1 procs for 833 steps with 30000 atoms, finish time Fri Dec  3 15:10:19 2021

timestep 3.333333333303046e-06
run 1 post no
Setting up run at Fri Dec  3 15:10:19 2021

Memory usage per processor = 41.4109 Mbytes
    Step    Atoms         KinEng         Volume           Time 
  224185    30000  0.00094891076      0.0004608      2.2416633 
  224186    30000  0.00094885666      0.0004608      2.2416667 
Loop time of 0.0149326 on 1 procs for 1 steps with 30000 atoms, finish time Fri Dec  3 15:10:19 2021

timestep 1e-05
run 833.0 post no
Setting up run at Fri Dec  3 15:10:19 2021

Memory usage per processor = 41.4109 Mbytes
    Step    Atoms         KinEng         Volume           Time 
  224186    30000  0.00094885666      0.0004608      2.2416667 
  225000    30000  0.00094023395      0.0004608      2.2498067 
  225019    30000  0.00093989048      0.0004608      2.2499967 
Loop time of 13.2351 on 1 procs for 833 steps with 30000 atoms, finish time Fri Dec  3 15:10:32 2021

timestep 3.333333333303046e-06
run 1 post no
Setting up run at Fri Dec  3 15:10:32 2021

Memory usage per processor = 41.4109 Mbytes
    Step    Atoms         KinEng         Volume           Time 
  225019    30000  0.00093989048      0.0004608      2.2499967 
  225020    30000  0.00093985187      0.0004608           2.25 
Loop time of 0.0146766 on 1 procs for 1 steps with 30000 atoms, finish time Fri Dec  3 15:10:33 2021

timestep 1e-05
run 833.0 post no
Setting up run at Fri Dec  3 15:10:33 2021

Memory usage per processor = 41.4109 Mbytes
    Step    Atoms         KinEng         Volume           Time 
  225020    30000  0.00093985187      0.0004608           2.25 
  225853    30000  0.00093275568      0.0004608        2.25833 
Loop time of 13.1234 on 1 procs for 833 steps with 30000 atoms, finish time Fri Dec  3 15:10:46 2021

timestep 3.333333333303046e-06
run 1 post no
Setting up run at Fri Dec  3 15:10:46 2021

Memory usage per processor = 41.4109 Mbytes
    Step    Atoms         KinEng         Volume           Time 
  225853    30000  0.00093275568      0.0004608        2.25833 
  225854    30000  0.00093271651      0.0004608      2.2583333 
Loop time of 0.0145515 on 1 procs for 1 steps with 30000 atoms, finish time Fri Dec  3 15:10:46 2021

timestep 1e-05
run 833.0 post no
Setting up run at Fri Dec  3 15:10:46 2021

Memory usage per processor = 41.4109 Mbytes
    Step    Atoms         KinEng         Volume           Time 
  225854    30000  0.00093271651      0.0004608      2.2583333 
  226000    30000  0.00093370253      0.0004608      2.2597933 
  226687    30000  0.00094457316      0.0004608      2.2666633 
Loop time of 13.0737 on 1 procs for 833 steps with 30000 atoms, finish time Fri Dec  3 15:10:59 2021

timestep 3.333333333303046e-06
run 1 post no
Setting up run at Fri Dec  3 15:10:59 2021

Memory usage per processor = 41.4109 Mbytes
    Step    Atoms         KinEng         Volume           Time 
  226687    30000  0.00094457316      0.0004608      2.2666633 
  226688    30000  0.00094454804      0.0004608      2.2666667 
Loop time of 0.014101 on 1 procs for 1 steps with 30000 atoms, finish time Fri Dec  3 15:10:59 2021

timestep 1e-05
run 833.0 post no
Setting up run at Fri Dec  3 15:11:00 2021

Memory usage per processor = 41.4109 Mbytes
    Step    Atoms         KinEng         Volume           Time 
  226688    30000  0.00094454804      0.0004608      2.2666667 
  227000    30000  0.00095342845      0.0004608      2.2697867 
  227521    30000  0.00095464596      0.0004608      2.2749967 
Loop time of 13.1012 on 1 procs for 833 steps with 30000 atoms, finish time Fri Dec  3 15:11:13 2021

timestep 3.333333333303046e-06
run 1 post no
Setting up run at Fri Dec  3 15:11:13 2021

Memory usage per processor = 41.4109 Mbytes
    Step    Atoms         KinEng         Volume           Time 
  227521    30000  0.00095464596      0.0004608      2.2749967 
  227522    30000  0.00095459315      0.0004608          2.275 
Loop time of 0.0153905 on 1 procs for 1 steps with 30000 atoms, finish time Fri Dec  3 15:11:13 2021

timestep 1e-05
run 833.0 post no
Setting up run at Fri Dec  3 15:11:13 2021

Memory usage per processor = 41.4109 Mbytes
    Step    Atoms         KinEng         Volume           Time 
  227522    30000  0.00095459315      0.0004608          2.275 
  228000    30000  0.00095120203      0.0004608        2.27978 
  228355    30000  0.00095018127      0.0004608        2.28333 
Loop time of 12.8911 on 1 procs for 833 steps with 30000 atoms, finish time Fri Dec  3 15:11:26 2021

timestep 3.333333333303046e-06
run 1 post no
Setting up run at Fri Dec  3 15:11:26 2021

Memory usage per processor = 41.4109 Mbytes
    Step    Atoms         KinEng         Volume           Time 
  228355    30000  0.00095018127      0.0004608        2.28333 
  228356    30000  0.00095015691      0.0004608      2.2833333 
Loop time of 0.014809 on 1 procs for 1 steps with 30000 atoms, finish time Fri Dec  3 15:11:26 2021

timestep 1e-05
run 833.0 post no
Setting up run at Fri Dec  3 15:11:26 2021

Memory usage per processor = 41.4109 Mbytes
    Step    Atoms         KinEng         Volume           Time 
  228356    30000  0.00095015691      0.0004608      2.2833333 
  229000    30000  0.00096222831      0.0004608      2.2897733 
  229189    30000  0.00096388942      0.0004608      2.2916633 
Loop time of 12.7684 on 1 procs for 833 steps with 30000 atoms, finish time Fri Dec  3 15:11:39 2021

timestep 3.333333333303046e-06
run 1 post no
Setting up run at Fri Dec  3 15:11:39 2021

Memory usage per processor = 41.4109 Mbytes
    Step    Atoms         KinEng         Volume           Time 
  229189    30000  0.00096388942      0.0004608      2.2916633 
  229190    30000  0.00096385388      0.0004608      2.2916667 
Loop time of 0.014934 on 1 procs for 1 steps with 30000 atoms, finish time Fri Dec  3 15:11:39 2021

timestep 1e-05
run 833.0 post no
Setting up run at Fri Dec  3 15:11:39 2021

Memory usage per processor = 41.4109 Mbytes
    Step    Atoms         KinEng         Volume           Time 
  229190    30000  0.00096385388      0.0004608      2.2916667 
  230000    30000  0.00095382486      0.0004608      2.2997667 
  230023    30000  0.00095348852      0.0004608      2.2999967 
Loop time of 12.713 on 1 procs for 833 steps with 30000 atoms, finish time Fri Dec  3 15:11:52 2021

timestep 3.333333333303046e-06
run 1 post no
Setting up run at Fri Dec  3 15:11:52 2021

Memory usage per processor = 41.4109 Mbytes
    Step    Atoms         KinEng         Volume           Time 
  230023    30000  0.00095348852      0.0004608      2.2999967 
  230024    30000  0.00095343779      0.0004608            2.3 
Loop time of 0.0147868 on 1 procs for 1 steps with 30000 atoms, finish time Fri Dec  3 15:11:52 2021

timestep 1e-05
run 833.0 post no
Setting up run at Fri Dec  3 15:11:52 2021

Memory usage per processor = 41.4109 Mbytes
    Step    Atoms         KinEng         Volume           Time 
  230024    30000  0.00095343779      0.0004608            2.3 
  230857    30000  0.00095172974      0.0004608        2.30833 
Loop time of 12.5661 on 1 procs for 833 steps with 30000 atoms, finish time Fri Dec  3 15:12:05 2021

timestep 3.333333333303046e-06
run 1 post no
Setting up run at Fri Dec  3 15:12:05 2021

Memory usage per processor = 41.4109 Mbytes
    Step    Atoms         KinEng         Volume           Time 
  230857    30000  0.00095172974      0.0004608        2.30833 
  230858    30000  0.00095169864      0.0004608      2.3083333 
Loop time of 0.0140544 on 1 procs for 1 steps with 30000 atoms, finish time Fri Dec  3 15:12:05 2021

timestep 1e-05
run 833.0 post no
Setting up run at Fri Dec  3 15:12:05 2021

Memory usage per processor = 41.4109 Mbytes
    Step    Atoms         KinEng         Volume           Time 
  230858    30000  0.00095169864      0.0004608      2.3083333 
  231000    30000  0.00095282252      0.0004608      2.3097533 
  231691    30000  0.00095752693      0.0004608      2.3166633 
Loop time of 12.4627 on 1 procs for 833 steps with 30000 atoms, finish time Fri Dec  3 15:12:18 2021

timestep 3.333333333303046e-06
run 1 post no
Setting up run at Fri Dec  3 15:12:18 2021

Memory usage per processor = 41.4109 Mbytes
    Step    Atoms         KinEng         Volume           Time 
  231691    30000  0.00095752693      0.0004608      2.3166633 
  231692    30000  0.00095748661      0.0004608      2.3166667 
Loop time of 0.0149713 on 1 procs for 1 steps with 30000 atoms, finish time Fri Dec  3 15:12:18 2021

timestep 1e-05
run 833.0 post no
Setting up run at Fri Dec  3 15:12:18 2021

Memory usage per processor = 41.4109 Mbytes
    Step    Atoms         KinEng         Volume           Time 
  231692    30000  0.00095748661      0.0004608      2.3166667 
  232000    30000  0.00094969159      0.0004608      2.3197467 
  232525    30000  0.00094982329      0.0004608      2.3249967 
Loop time of 12.4842 on 1 procs for 833 steps with 30000 atoms, finish time Fri Dec  3 15:12:30 2021

timestep 3.333333333303046e-06
run 1 post no
Setting up run at Fri Dec  3 15:12:30 2021

Memory usage per processor = 41.4109 Mbytes
    Step    Atoms         KinEng         Volume           Time 
  232525    30000  0.00094982329      0.0004608      2.3249967 
  232526    30000  0.00094978278      0.0004608          2.325 
Loop time of 0.0161289 on 1 procs for 1 steps with 30000 atoms, finish time Fri Dec  3 15:12:31 2021

timestep 1e-05
run 833.0 post no
Setting up run at Fri Dec  3 15:12:31 2021

Memory usage per processor = 41.4109 Mbytes
    Step    Atoms         KinEng         Volume           Time 
  232526    30000  0.00094978278      0.0004608          2.325 
  233000    30000  0.00095817519      0.0004608        2.32974 
  233359    30000  0.00095762098      0.0004608        2.33333 
Loop time of 12.3304 on 1 procs for 833 steps with 30000 atoms, finish time Fri Dec  3 15:12:43 2021

timestep 3.333333333303046e-06
run 1 post no
Setting up run at Fri Dec  3 15:12:43 2021

Memory usage per processor = 41.4109 Mbytes
    Step    Atoms         KinEng         Volume           Time 
  233359    30000  0.00095762098      0.0004608        2.33333 
  233360    30000   0.0009575671      0.0004608      2.3333333 
Loop time of 0.014952 on 1 procs for 1 steps with 30000 atoms, finish time Fri Dec  3 15:12:43 2021

timestep 1e-05
run 833.0 post no
Setting up run at Fri Dec  3 15:12:43 2021

Memory usage per processor = 41.4109 Mbytes
    Step    Atoms         KinEng         Volume           Time 
  233360    30000   0.0009575671      0.0004608      2.3333333 
  234000    30000  0.00094993636      0.0004608      2.3397333 
  234193    30000  0.00094951064      0.0004608      2.3416633 
Loop time of 12.3001 on 1 procs for 833 steps with 30000 atoms, finish time Fri Dec  3 15:12:56 2021

timestep 3.333333333303046e-06
run 1 post no
Setting up run at Fri Dec  3 15:12:56 2021

Memory usage per processor = 41.4109 Mbytes
    Step    Atoms         KinEng         Volume           Time 
  234193    30000  0.00094951064      0.0004608      2.3416633 
  234194    30000  0.00094947322      0.0004608      2.3416667 
Loop time of 0.0147931 on 1 procs for 1 steps with 30000 atoms, finish time Fri Dec  3 15:12:56 2021

timestep 1e-05
run 833.0 post no
Setting up run at Fri Dec  3 15:12:56 2021

Memory usage per processor = 41.4109 Mbytes
    Step    Atoms         KinEng         Volume           Time 
  234194    30000  0.00094947322      0.0004608      2.3416667 
  235000    30000  0.00095374081      0.0004608      2.3497267 
  235027    30000  0.00095412342      0.0004608      2.3499967 
Loop time of 12.3495 on 1 procs for 833 steps with 30000 atoms, finish time Fri Dec  3 15:13:08 2021

timestep 3.333333333303046e-06
run 1 post no
Setting up run at Fri Dec  3 15:13:08 2021

Memory usage per processor = 41.4109 Mbytes
    Step    Atoms         KinEng         Volume           Time 
  235027    30000  0.00095412342      0.0004608      2.3499967 
  235028    30000  0.00095409776      0.0004608           2.35 
Loop time of 0.0148661 on 1 procs for 1 steps with 30000 atoms, finish time Fri Dec  3 15:13:08 2021

timestep 1e-05
run 833.0 post no
Setting up run at Fri Dec  3 15:13:08 2021

Memory usage per processor = 41.4109 Mbytes
    Step    Atoms         KinEng         Volume           Time 
  235028    30000  0.00095409776      0.0004608           2.35 
  235861    30000  0.00096172185      0.0004608        2.35833 
Loop time of 12.4238 on 1 procs for 833 steps with 30000 atoms, finish time Fri Dec  3 15:13:21 2021

timestep 3.333333333303046e-06
run 1 post no
Setting up run at Fri Dec  3 15:13:21 2021

Memory usage per processor = 41.4109 Mbytes
    Step    Atoms         KinEng         Volume           Time 
  235861    30000  0.00096172185      0.0004608        2.35833 
  235862    30000  0.00096169203      0.0004608      2.3583333 
Loop time of 0.0144028 on 1 procs for 1 steps with 30000 atoms, finish time Fri Dec  3 15:13:21 2021

timestep 1e-05
run 833.0 post no
Setting up run at Fri Dec  3 15:13:21 2021

Memory usage per processor = 41.4109 Mbytes
    Step    Atoms         KinEng         Volume           Time 
  235862    30000  0.00096169203      0.0004608      2.3583333 
  236000    30000  0.00096300513      0.0004608      2.3597133 
  236695    30000   0.0009558617      0.0004608      2.3666633 
Loop time of 12.5589 on 1 procs for 833 steps with 30000 atoms, finish time Fri Dec  3 15:13:34 2021

timestep 3.333333333303046e-06
run 1 post no
Setting up run at Fri Dec  3 15:13:34 2021

Memory usage per processor = 41.4109 Mbytes
    Step    Atoms         KinEng         Volume           Time 
  236695    30000   0.0009558617      0.0004608      2.3666633 
  236696    30000  0.00095580706      0.0004608      2.3666667 
Loop time of 0.0144856 on 1 procs for 1 steps with 30000 atoms, finish time Fri Dec  3 15:13:34 2021

timestep 1e-05
run 833.0 post no
Setting up run at Fri Dec  3 15:13:34 2021

Memory usage per processor = 41.4109 Mbytes
    Step    Atoms         KinEng         Volume           Time 
  236696    30000  0.00095580706      0.0004608      2.3666667 
  237000    30000  0.00095304322      0.0004608      2.3697067 
  237529    30000  0.00095921961      0.0004608      2.3749967 
Loop time of 12.6588 on 1 procs for 833 steps with 30000 atoms, finish time Fri Dec  3 15:13:47 2021

timestep 3.333333333303046e-06
run 1 post no
Setting up run at Fri Dec  3 15:13:47 2021

Memory usage per processor = 41.4109 Mbytes
    Step    Atoms         KinEng         Volume           Time 
  237529    30000  0.00095921961      0.0004608      2.3749967 
  237530    30000  0.00095918149      0.0004608          2.375 
Loop time of 0.01495 on 1 procs for 1 steps with 30000 atoms, finish time Fri Dec  3 15:13:47 2021

timestep 1e-05
run 833.0 post no
Setting up run at Fri Dec  3 15:13:47 2021

Memory usage per processor = 41.4109 Mbytes
    Step    Atoms         KinEng         Volume           Time 
  237530    30000  0.00095918149      0.0004608          2.375 
  238000    30000   0.0009617351      0.0004608         2.3797 
  238363    30000   0.0009511895      0.0004608        2.38333 
Loop time of 12.7765 on 1 procs for 833 steps with 30000 atoms, finish time Fri Dec  3 15:14:00 2021

timestep 3.333333333303046e-06
run 1 post no
Setting up run at Fri Dec  3 15:14:00 2021

Memory usage per processor = 41.4109 Mbytes
    Step    Atoms         KinEng         Volume           Time 
  238363    30000   0.0009511895      0.0004608        2.38333 
  238364    30000  0.00095114244      0.0004608      2.3833333 
Loop time of 0.0141035 on 1 procs for 1 steps with 30000 atoms, finish time Fri Dec  3 15:14:00 2021

timestep 1e-05
run 833.0 post no
Setting up run at Fri Dec  3 15:14:00 2021

Memory usage per processor = 41.4109 Mbytes
    Step    Atoms         KinEng         Volume           Time 
  238364    30000  0.00095114244      0.0004608      2.3833333 
  239000    30000  0.00095530279      0.0004608      2.3896933 
  239197    30000  0.00095743515      0.0004608      2.3916633 
Loop time of 12.8179 on 1 procs for 833 steps with 30000 atoms, finish time Fri Dec  3 15:14:13 2021

timestep 3.333333333303046e-06
run 1 post no
Setting up run at Fri Dec  3 15:14:13 2021

Memory usage per processor = 41.4109 Mbytes
    Step    Atoms         KinEng         Volume           Time 
  239197    30000  0.00095743515      0.0004608      2.3916633 
  239198    30000  0.00095740358      0.0004608      2.3916667 
Loop time of 0.0149245 on 1 procs for 1 steps with 30000 atoms, finish time Fri Dec  3 15:14:13 2021

timestep 1e-05
run 833.0 post no
Setting up run at Fri Dec  3 15:14:13 2021

Memory usage per processor = 41.4109 Mbytes
    Step    Atoms         KinEng         Volume           Time 
  239198    30000  0.00095740358      0.0004608      2.3916667 
  240000    30000  0.00095257123      0.0004608      2.3996867 
  240031    30000  0.00095261056      0.0004608      2.3999967 
Loop time of 12.9972 on 1 procs for 833 steps with 30000 atoms, finish time Fri Dec  3 15:14:26 2021

timestep 3.333333333303046e-06
run 1 post no
Setting up run at Fri Dec  3 15:14:26 2021

Memory usage per processor = 41.4109 Mbytes
    Step    Atoms         KinEng         Volume           Time 
  240031    30000  0.00095261056      0.0004608      2.3999967 
  240032    30000  0.00095256436      0.0004608            2.4 
Loop time of 0.0140894 on 1 procs for 1 steps with 30000 atoms, finish time Fri Dec  3 15:14:26 2021

timestep 1e-05
run 833.0 post no
Setting up run at Fri Dec  3 15:14:26 2021

Memory usage per processor = 41.4109 Mbytes
    Step    Atoms         KinEng         Volume           Time 
  240032    30000  0.00095256436      0.0004608            2.4 
  240865    30000  0.00096367251      0.0004608        2.40833 
Loop time of 13.1811 on 1 procs for 833 steps with 30000 atoms, finish time Fri Dec  3 15:14:40 2021

timestep 3.333333333303046e-06
run 1 post no
Setting up run at Fri Dec  3 15:14:40 2021

Memory usage per processor = 41.4109 Mbytes
    Step    Atoms         KinEng         Volume           Time 
  240865    30000  0.00096367251      0.0004608        2.40833 
  240866    30000  0.00096362987      0.0004608      2.4083333 
Loop time of 0.0143911 on 1 procs for 1 steps with 30000 atoms, finish time Fri Dec  3 15:14:40 2021

timestep 1e-05
run 833.0 post no
Setting up run at Fri Dec  3 15:14:40 2021

Memory usage per processor = 41.4109 Mbytes
    Step    Atoms         KinEng         Volume           Time 
  240866    30000  0.00096362987      0.0004608      2.4083333 
  241000    30000  0.00096271093      0.0004608      2.4096733 
  241699    30000  0.00096124356      0.0004608      2.4166633 
Loop time of 13.2035 on 1 procs for 833 steps with 30000 atoms, finish time Fri Dec  3 15:14:53 2021

timestep 3.333333333303046e-06
run 1 post no
Setting up run at Fri Dec  3 15:14:53 2021

Memory usage per processor = 41.4109 Mbytes
    Step    Atoms         KinEng         Volume           Time 
  241699    30000  0.00096124356      0.0004608      2.4166633 
  241700    30000   0.0009611951      0.0004608      2.4166667 
Loop time of 0.0147912 on 1 procs for 1 steps with 30000 atoms, finish time Fri Dec  3 15:14:53 2021

timestep 1e-05
run 833.0 post no
Setting up run at Fri Dec  3 15:14:53 2021

Memory usage per processor = 41.4109 Mbytes
    Step    Atoms         KinEng         Volume           Time 
  241700    30000   0.0009611951      0.0004608      2.4166667 
  242000    30000  0.00095597404      0.0004608      2.4196667 
  242533    30000  0.00095436122      0.0004608      2.4249967 
Loop time of 13.174 on 1 procs for 833 steps with 30000 atoms, finish time Fri Dec  3 15:15:07 2021

timestep 3.333333333303046e-06
run 1 post no
Setting up run at Fri Dec  3 15:15:07 2021

Memory usage per processor = 41.4109 Mbytes
[...]
    Step    Atoms         KinEng         Volume           Time 
  247537    30000  0.00096537656      0.0004608      2.4749967 
  247538    30000  0.00096533124      0.0004608          2.475 
Loop time of 0.0141569 on 1 procs for 1 steps with 30000 atoms, finish time Fri Dec  3 15:16:30 2021

timestep 1e-05
run 833.0 post no
Setting up run at Fri Dec  3 15:16:30 2021

Memory usage per processor = 41.4109 Mbytes
    Step    Atoms         KinEng         Volume           Time 
  247538    30000  0.00096533124      0.0004608          2.475 
  248000    30000  0.00095922616      0.0004608        2.47962 
  248371    30000  0.00095516175      0.0004608        2.48333 
Loop time of 13.5243 on 1 procs for 833 steps with 30000 atoms, finish time Fri Dec  3 15:16:44 2021

timestep 3.333333333303046e-06
run 1 post no
Setting up run at Fri Dec  3 15:16:44 2021

Memory usage per processor = 41.4109 Mbytes
    Step    Atoms         KinEng         Volume           Time 
  248371    30000  0.00095516175      0.0004608        2.48333 
  248372    30000  0.00095512038      0.0004608      2.4833333 
Loop time of 0.0146178 on 1 procs for 1 steps with 30000 atoms, finish time Fri Dec  3 15:16:44 2021

timestep 1e-05
run 833.0 post no
Setting up run at Fri Dec  3 15:16:44 2021

Memory usage per processor = 41.4109 Mbytes
    Step    Atoms         KinEng         Volume           Time 
  248372    30000  0.00095512038      0.0004608      2.4833333 
  249000    30000  0.00095373631      0.0004608      2.4896133 
  249205    30000  0.00095058613      0.0004608      2.4916633 
Loop time of 13.5361 on 1 procs for 833 steps with 30000 atoms, finish time Fri Dec  3 15:16:57 2021

timestep 3.333333333303046e-06
run 1 post no
Setting up run at Fri Dec  3 15:16:57 2021

Memory usage per processor = 41.4109 Mbytes
    Step    Atoms         KinEng         Volume           Time 
  249205    30000  0.00095058613      0.0004608      2.4916633 
  249206    30000  0.00095054796      0.0004608      2.4916667 
Loop time of 0.014652 on 1 procs for 1 steps with 30000 atoms, finish time Fri Dec  3 15:16:58 2021

timestep 1e-05
run 833.0 post no
Setting up run at Fri Dec  3 15:16:58 2021

Memory usage per processor = 41.4109 Mbytes
    Step    Atoms         KinEng         Volume           Time 
  249206    30000  0.00095054796      0.0004608      2.4916667 
  250000    30000  0.00094072995      0.0004608      2.4996067 
  250039    30000  0.00094089639      0.0004608      2.4999967 
Loop time of 13.5836 on 1 procs for 833 steps with 30000 atoms, finish time Fri Dec  3 15:17:11 2021

timestep 3.333333333303046e-06
run 1 post no
Setting up run at Fri Dec  3 15:17:11 2021

Memory usage per processor = 41.4109 Mbytes
    Step    Atoms         KinEng         Volume           Time 
  250039    30000  0.00094089639      0.0004608      2.4999967 
  250040    30000  0.00094084874      0.0004608            2.5 
Loop time of 0.0144543 on 1 procs for 1 steps with 30000 atoms, finish time Fri Dec  3 15:17:12 2021

timestep 1e-05
run 833.0 post no
Setting up run at Fri Dec  3 15:17:12 2021

Memory usage per processor = 41.4109 Mbytes
    Step    Atoms         KinEng         Volume           Time 
  250040    30000  0.00094084874      0.0004608            2.5 
  250873    30000  0.00095727093      0.0004608        2.50833 
Loop time of 13.5175 on 1 procs for 833 steps with 30000 atoms, finish time Fri Dec  3 15:17:25 2021

timestep 3.333333333303046e-06
run 1 post no
Setting up run at Fri Dec  3 15:17:25 2021

Memory usage per processor = 41.4109 Mbytes
    Step    Atoms         KinEng         Volume           Time 
  250873    30000  0.00095727093      0.0004608        2.50833 
  250874    30000  0.00095724758      0.0004608      2.5083333 
Loop time of 0.0140471 on 1 procs for 1 steps with 30000 atoms, finish time Fri Dec  3 15:17:26 2021

timestep 1e-05
run 833.0 post no
Setting up run at Fri Dec  3 15:17:26 2021

Memory usage per processor = 41.4109 Mbytes
    Step    Atoms         KinEng         Volume           Time 
  250874    30000  0.00095724758      0.0004608      2.5083333 
  251000    30000  0.00096113616      0.0004608      2.5095933 
  251707    30000   0.0009549508      0.0004608      2.5166633 
Loop time of 13.531 on 1 procs for 833 steps with 30000 atoms, finish time Fri Dec  3 15:17:39 2021

timestep 3.333333333303046e-06
run 1 post no
Setting up run at Fri Dec  3 15:17:39 2021

Memory usage per processor = 41.4109 Mbytes
    Step    Atoms         KinEng         Volume           Time 
  251707    30000   0.0009549508      0.0004608      2.5166633 
  251708    30000  0.00095491461      0.0004608      2.5166667 
Loop time of 0.0141287 on 1 procs for 1 steps with 30000 atoms, finish time Fri Dec  3 15:17:40 2021

timestep 1e-05
run 833.0 post no
Setting up run at Fri Dec  3 15:17:40 2021

Memory usage per processor = 41.4109 Mbytes
    Step    Atoms         KinEng         Volume           Time 
  251708    30000  0.00095491461      0.0004608      2.5166667 
  252000    30000  0.00095277455      0.0004608      2.5195867 
  252541    30000  0.00094926808      0.0004608      2.5249967 
Loop time of 13.5091 on 1 procs for 833 steps with 30000 atoms, finish time Fri Dec  3 15:17:53 2021

timestep 3.333333333303046e-06
run 1 post no
Setting up run at Fri Dec  3 15:17:53 2021

Memory usage per processor = 41.4109 Mbytes
    Step    Atoms         KinEng         Volume           Time 
  252541    30000  0.00094926808      0.0004608      2.5249967 
  252542    30000  0.00094920961      0.0004608          2.525 
Loop time of 0.0141225 on 1 procs for 1 steps with 30000 atoms, finish time Fri Dec  3 15:17:53 2021

timestep 1e-05
run 833.0 post no
Setting up run at Fri Dec  3 15:17:53 2021

Memory usage per processor = 41.4109 Mbytes
    Step    Atoms         KinEng         Volume           Time 
  252542    30000  0.00094920961      0.0004608          2.525 
  253000    30000  0.00094121277      0.0004608        2.52958 
  253375    30000   0.0009406331      0.0004608        2.53333 
Loop time of 13.5279 on 1 procs for 833 steps with 30000 atoms, finish time Fri Dec  3 15:18:07 2021

timestep 3.333333333303046e-06
run 1 post no
Setting up run at Fri Dec  3 15:18:07 2021

Memory usage per processor = 41.4109 Mbytes
    Step    Atoms         KinEng         Volume           Time 
  253375    30000   0.0009406331      0.0004608        2.53333 
  253376    30000  0.00094060313      0.0004608      2.5333333 
Loop time of 0.0150878 on 1 procs for 1 steps with 30000 atoms, finish time Fri Dec  3 15:18:07 2021

timestep 1e-05
run 833.0 post no
Setting up run at Fri Dec  3 15:18:07 2021

Memory usage per processor = 41.4109 Mbytes
    Step    Atoms         KinEng         Volume           Time 
  253376    30000  0.00094060313      0.0004608      2.5333333 
  254000    30000  0.00094005238      0.0004608      2.5395733 
  254209    30000  0.00094077642      0.0004608      2.5416633 
Loop time of 13.4235 on 1 procs for 833 steps with 30000 atoms, finish time Fri Dec  3 15:18:21 2021

timestep 3.333333333303046e-06
run 1 post no
Setting up run at Fri Dec  3 15:18:21 2021

Memory usage per processor = 41.4109 Mbytes
    Step    Atoms         KinEng         Volume           Time 
  254209    30000  0.00094077642      0.0004608      2.5416633 
  254210    30000  0.00094074141      0.0004608      2.5416667 
Loop time of 0.0145479 on 1 procs for 1 steps with 30000 atoms, finish time Fri Dec  3 15:18:21 2021

timestep 1e-05
run 833.0 post no
Setting up run at Fri Dec  3 15:18:21 2021

Memory usage per processor = 41.4109 Mbytes
    Step    Atoms         KinEng         Volume           Time 
  254210    30000  0.00094074141      0.0004608      2.5416667 
  255000    30000   0.0009470321      0.0004608      2.5495667 
  255043    30000  0.00094695137      0.0004608      2.5499967 
Loop time of 13.3917 on 1 procs for 833 steps with 30000 atoms, finish time Fri Dec  3 15:18:35 2021

timestep 3.333333333303046e-06
run 1 post no
Setting up run at Fri Dec  3 15:18:35 2021

Memory usage per processor = 41.4109 Mbytes
    Step    Atoms         KinEng         Volume           Time 
  255043    30000  0.00094695137      0.0004608      2.5499967 
  255044    30000  0.00094690905      0.0004608           2.55 
Loop time of 0.0147408 on 1 procs for 1 steps with 30000 atoms, finish time Fri Dec  3 15:18:35 2021

timestep 1e-05
run 833.0 post no
Setting up run at Fri Dec  3 15:18:35 2021

Memory usage per processor = 41.4109 Mbytes
    Step    Atoms         KinEng         Volume           Time 
  255044    30000  0.00094690905      0.0004608           2.55 
  255877    30000  0.00094805295      0.0004608        2.55833 
Loop time of 13.3917 on 1 procs for 833 steps with 30000 atoms, finish time Fri Dec  3 15:18:49 2021

timestep 3.333333333303046e-06
run 1 post no
Setting up run at Fri Dec  3 15:18:49 2021

Memory usage per processor = 41.4109 Mbytes
    Step    Atoms         KinEng         Volume           Time 
  255877    30000  0.00094805295      0.0004608        2.55833 
  255878    30000  0.00094801869      0.0004608      2.5583333 
Loop time of 0.0145091 on 1 procs for 1 steps with 30000 atoms, finish time Fri Dec  3 15:18:49 2021

timestep 1e-05
run 833.0 post no
Setting up run at Fri Dec  3 15:18:49 2021

Memory usage per processor = 41.4109 Mbytes
    Step    Atoms         KinEng         Volume           Time 
  255878    30000  0.00094801869      0.0004608      2.5583333 
  256000    30000  0.00094720505      0.0004608      2.5595533 
  256711    30000  0.00093853115      0.0004608      2.5666633 
Loop time of 13.443 on 1 procs for 833 steps with 30000 atoms, finish time Fri Dec  3 15:19:02 2021

timestep 3.333333333303046e-06
run 1 post no
Setting up run at Fri Dec  3 15:19:02 2021

Memory usage per processor = 41.4109 Mbytes
    Step    Atoms         KinEng         Volume           Time 
  256711    30000  0.00093853115      0.0004608      2.5666633 
  256712    30000  0.00093849617      0.0004608      2.5666667 
Loop time of 0.0149782 on 1 procs for 1 steps with 30000 atoms, finish time Fri Dec  3 15:19:03 2021

timestep 1e-05
run 833.0 post no
Setting up run at Fri Dec  3 15:19:03 2021

Memory usage per processor = 41.4109 Mbytes
    Step    Atoms         KinEng         Volume           Time 
  256712    30000  0.00093849617      0.0004608      2.5666667 
  257000    30000  0.00093587027      0.0004608      2.5695467 
  257545    30000  0.00094825146      0.0004608      2.5749967 
Loop time of 13.2524 on 1 procs for 833 steps with 30000 atoms, finish time Fri Dec  3 15:19:16 2021

timestep 3.333333333303046e-06
run 1 post no
Setting up run at Fri Dec  3 15:19:16 2021

Memory usage per processor = 41.4109 Mbytes
    Step    Atoms         KinEng         Volume           Time 
  257545    30000  0.00094825146      0.0004608      2.5749967 
  257546    30000   0.0009482179      0.0004608          2.575 
Loop time of 0.014353 on 1 procs for 1 steps with 30000 atoms, finish time Fri Dec  3 15:19:16 2021

timestep 1e-05
run 833.0 post no
Setting up run at Fri Dec  3 15:19:16 2021

Memory usage per processor = 41.4109 Mbytes
    Step    Atoms         KinEng         Volume           Time 
  257546    30000   0.0009482179      0.0004608          2.575 
  258000    30000  0.00095518571      0.0004608        2.57954 
  258379    30000  0.00095245984      0.0004608        2.58333 
Loop time of 13.1488 on 1 procs for 833 steps with 30000 atoms, finish time Fri Dec  3 15:19:30 2021

timestep 3.333333333303046e-06
run 1 post no
Setting up run at Fri Dec  3 15:19:30 2021

Memory usage per processor = 41.4109 Mbytes
    Step    Atoms         KinEng         Volume           Time 
  258379    30000  0.00095245984      0.0004608        2.58333 
  258380    30000  0.00095242671      0.0004608      2.5833333 
Loop time of 0.0147954 on 1 procs for 1 steps with 30000 atoms, finish time Fri Dec  3 15:19:30 2021

timestep 1e-05
run 833.0 post no
Setting up run at Fri Dec  3 15:19:30 2021

Memory usage per processor = 41.4109 Mbytes
    Step    Atoms         KinEng         Volume           Time 
  258380    30000  0.00095242671      0.0004608      2.5833333 
  259000    30000   0.0009648522      0.0004608      2.5895333 
  259213    30000  0.00096242719      0.0004608      2.5916633 
Loop time of 13.077 on 1 procs for 833 steps with 30000 atoms, finish time Fri Dec  3 15:19:43 2021

timestep 3.333333333303046e-06
run 1 post no
Setting up run at Fri Dec  3 15:19:43 2021

Memory usage per processor = 41.4109 Mbytes
    Step    Atoms         KinEng         Volume           Time 
  259213    30000  0.00096242719      0.0004608      2.5916633 
  259214    30000  0.00096238343      0.0004608      2.5916667 
Loop time of 0.0141019 on 1 procs for 1 steps with 30000 atoms, finish time Fri Dec  3 15:19:43 2021

timestep 1e-05
run 833.0 post no
Setting up run at Fri Dec  3 15:19:43 2021

Memory usage per processor = 41.4109 Mbytes
    Step    Atoms         KinEng         Volume           Time 
  259214    30000  0.00096238343      0.0004608      2.5916667 
  260000    30000  0.00095557189      0.0004608      2.5995267 
  260047    30000  0.00095524818      0.0004608      2.5999967 
Loop time of 13.0395 on 1 procs for 833 steps with 30000 atoms, finish time Fri Dec  3 15:19:56 2021

timestep 3.333333333303046e-06
run 1 post no
Setting up run at Fri Dec  3 15:19:56 2021

Memory usage per processor = 41.4109 Mbytes
    Step    Atoms         KinEng         Volume           Time 
  260047    30000  0.00095524818      0.0004608      2.5999967 
  260048    30000  0.00095520415      0.0004608            2.6 
Loop time of 0.0148448 on 1 procs for 1 steps with 30000 atoms, finish time Fri Dec  3 15:19:57 2021

timestep 1e-05
run 833.0 post no
Setting up run at Fri Dec  3 15:19:57 2021

Memory usage per processor = 41.4109 Mbytes
    Step    Atoms         KinEng         Volume           Time 
  260048    30000  0.00095520415      0.0004608            2.6 
  260881    30000  0.00095945542      0.0004608        2.60833 
Loop time of 12.9277 on 1 procs for 833 steps with 30000 atoms, finish time Fri Dec  3 15:20:10 2021

timestep 3.333333333303046e-06
run 1 post no
Setting up run at Fri Dec  3 15:20:10 2021

Memory usage per processor = 41.4109 Mbytes
    Step    Atoms         KinEng         Volume           Time 
  260881    30000  0.00095945542      0.0004608        2.60833 
  260882    30000  0.00095941291      0.0004608      2.6083333 
Loop time of 0.0149205 on 1 procs for 1 steps with 30000 atoms, finish time Fri Dec  3 15:20:10 2021

timestep 1e-05
run 833.0 post no
Setting up run at Fri Dec  3 15:20:10 2021

Memory usage per processor = 41.4109 Mbytes
    Step    Atoms         KinEng         Volume           Time 
  260882    30000  0.00095941291      0.0004608      2.6083333 
  261000    30000  0.00095797294      0.0004608      2.6095133 
  261715    30000  0.00096311773      0.0004608      2.6166633 
Loop time of 12.8016 on 1 procs for 833 steps with 30000 atoms, finish time Fri Dec  3 15:20:23 2021

timestep 3.333333333303046e-06
run 1 post no
Setting up run at Fri Dec  3 15:20:23 2021

Memory usage per processor = 41.4109 Mbytes
    Step    Atoms         KinEng         Volume           Time 
  261715    30000  0.00096311773      0.0004608      2.6166633 
  261716    30000  0.00096306998      0.0004608      2.6166667 
Loop time of 0.0144305 on 1 procs for 1 steps with 30000 atoms, finish time Fri Dec  3 15:20:23 2021

timestep 1e-05
run 833.0 post no
Setting up run at Fri Dec  3 15:20:23 2021

Memory usage per processor = 41.4109 Mbytes
    Step    Atoms         KinEng         Volume           Time 
  261716    30000  0.00096306998      0.0004608      2.6166667 
  262000    30000  0.00096352177      0.0004608      2.6195067 
  262549    30000  0.00096700758      0.0004608      2.6249967 
Loop time of 12.6809 on 1 procs for 833 steps with 30000 atoms, finish time Fri Dec  3 15:20:36 2021

timestep 3.333333333303046e-06
run 1 post no
Setting up run at Fri Dec  3 15:20:36 2021

Memory usage per processor = 41.4109 Mbytes
    Step    Atoms         KinEng         Volume           Time 
  262549    30000  0.00096700758      0.0004608      2.6249967 
  262550    30000  0.00096695737      0.0004608          2.625 
Loop time of 0.015228 on 1 procs for 1 steps with 30000 atoms, finish time Fri Dec  3 15:20:36 2021

timestep 1e-05
run 833.0 post no
Setting up run at Fri Dec  3 15:20:36 2021

Memory usage per processor = 41.4109 Mbytes
    Step    Atoms         KinEng         Volume           Time 
  262550    30000  0.00096695737      0.0004608          2.625 
  263000    30000  0.00096134152      0.0004608         2.6295 
  263383    30000  0.00095602813      0.0004608        2.63333 
Loop time of 12.6399 on 1 procs for 833 steps with 30000 atoms, finish time Fri Dec  3 15:20:49 2021

timestep 3.333333333303046e-06
run 1 post no
Setting up run at Fri Dec  3 15:20:49 2021

Memory usage per processor = 41.4109 Mbytes
    Step    Atoms         KinEng         Volume           Time 
  263383    30000  0.00095602813      0.0004608        2.63333 
  263384    30000  0.00095598676      0.0004608      2.6333333 
Loop time of 0.0142459 on 1 procs for 1 steps with 30000 atoms, finish time Fri Dec  3 15:20:49 2021

timestep 1e-05
run 833.0 post no
Setting up run at Fri Dec  3 15:20:49 2021

Memory usage per processor = 41.4109 Mbytes
    Step    Atoms         KinEng         Volume           Time 
  263384    30000  0.00095598676      0.0004608      2.6333333 
  264000    30000   0.0009543281      0.0004608      2.6394933 
  264217    30000   0.0009580719      0.0004608      2.6416633 
Loop time of 12.5095 on 1 procs for 833 steps with 30000 atoms, finish time Fri Dec  3 15:21:02 2021

timestep 3.333333333303046e-06
run 1 post no
Setting up run at Fri Dec  3 15:21:02 2021

Memory usage per processor = 41.4109 Mbytes
    Step    Atoms         KinEng         Volume           Time 
  264217    30000   0.0009580719      0.0004608      2.6416633 
  264218    30000  0.00095804485      0.0004608      2.6416667 
Loop time of 0.0147671 on 1 procs for 1 steps with 30000 atoms, finish time Fri Dec  3 15:21:02 2021

timestep 1e-05
run 833.0 post no
Setting up run at Fri Dec  3 15:21:02 2021

Memory usage per processor = 41.4109 Mbytes
    Step    Atoms         KinEng         Volume           Time 
  264218    30000  0.00095804485      0.0004608      2.6416667 
  265000    30000  0.00095946752      0.0004608      2.6494867 
  265051    30000  0.00095974425      0.0004608      2.6499967 
Loop time of 12.4168 on 1 procs for 833 steps with 30000 atoms, finish time Fri Dec  3 15:21:14 2021

timestep 3.333333333303046e-06
run 1 post no
Setting up run at Fri Dec  3 15:21:14 2021

Memory usage per processor = 41.4109 Mbytes
    Step    Atoms         KinEng         Volume           Time 
  265051    30000  0.00095974425      0.0004608      2.6499967 
  265052    30000  0.00095970539      0.0004608           2.65 
Loop time of 0.0141878 on 1 procs for 1 steps with 30000 atoms, finish time Fri Dec  3 15:21:14 2021

timestep 1e-05
run 833.0 post no
Setting up run at Fri Dec  3 15:21:14 2021

Memory usage per processor = 41.4109 Mbytes
    Step    Atoms         KinEng         Volume           Time 
  265052    30000  0.00095970539      0.0004608           2.65 
  265885    30000  0.00096112106      0.0004608        2.65833 
Loop time of 12.3317 on 1 procs for 833 steps with 30000 atoms, finish time Fri Dec  3 15:21:27 2021

timestep 3.333333333303046e-06
run 1 post no
Setting up run at Fri Dec  3 15:21:27 2021

Memory usage per processor = 41.4109 Mbytes
    Step    Atoms         KinEng         Volume           Time 
  265885    30000  0.00096112106      0.0004608        2.65833 
  265886    30000  0.00096108079      0.0004608      2.6583333 
Loop time of 0.0145919 on 1 procs for 1 steps with 30000 atoms, finish time Fri Dec  3 15:21:27 2021

timestep 1e-05
