LIGGGHTS (Version LIGGGHTS-PUBLIC 3.8.0, compiled 2020-08-31-19:37:31 by andreinicusan, git commit 6e87343906b56807d7e6e102f94210a8f69e2fe8)
